ITEM: TIMESTEP
905000
ITEM: NUMBER OF ATOMS
220
ITEM: BOX BOUNDS ff ff ff
-5.0000000000000000e+01 5.0000000000000000e+01
-5.0000000000000000e+01 5.0000000000000000e+01
-5.0000000000000000e+01 5.0000000000000000e+01
ITEM: ATOMS id type xs ys zs
34 2 0.561613 0.487408 0.57224
19 1 0.561724 0.498306 0.571231
24 2 0.610699 0.532801 0.584688
16 1 0.573215 0.505703 0.570162
31 2 0.581771 0.500375 0.567479
29 2 0.605592 0.533679 0.561741
1 3 0.586295 0.526754 0.57045
155 3 0.576005 0.509529 0.630575
219 2 0.585653 0.50233 0.604442
14 1 0.610329 0.536984 0.610084
35 2 0.552318 0.502546 0.575573
13 1 0.57394 0.520596 0.572571
5 3 0.563133 0.526384 0.576807
6 3 0.621776 0.531873 0.60708
190 1 0.57829 0.494236 0.604027
220 2 0.580073 0.486537 0.597107
188 1 0.568919 0.492416 0.613116
117 1 0.66632 0.498009 0.6266
145 2 0.670394 0.493772 0.617761
115 1 0.663943 0.513216 0.624557
82 3 0.664645 0.518123 0.611513
143 2 0.670376 0.537492 0.605964
139 2 0.648434 0.535623 0.595724
113 1 0.662679 0.533599 0.61216
142 2 0.664642 0.537204 0.622468
205 2 0.527894 0.593479 0.588847
154 3 0.505558 0.604668 0.577307
217 2 0.49764 0.588528 0.594302
189 1 0.500483 0.594979 0.602846
218 2 0.497456 0.591281 0.61279
185 1 0.511557 0.610192 0.587147
187 1 0.506941 0.606997 0.601551
215 2 0.511052 0.61277 0.609647
197 2 0.52679 0.58277 0.610132
169 1 0.534247 0.590281 0.607912
10 1 0.608337 0.543149 0.587298
2 3 0.60198 0.543836 0.601633
177 1 0.536496 0.595984 0.595584
12 1 0.606894 0.544 0.563728
208 2 0.537469 0.599509 0.568418
9 1 0.58636 0.541567 0.576589
181 1 0.540528 0.610055 0.570129
207 2 0.544176 0.611633 0.560221
23 2 0.580541 0.541081 0.585837
179 1 0.547326 0.605037 0.592378
150 3 0.551275 0.611499 0.580048
22 2 0.579201 0.548546 0.571644
8 1 0.59911 0.548444 0.577136
28 2 0.60279 0.549576 0.554724
128 2 0.577952 0.587026 0.591607
26 2 0.595474 0.565612 0.589264
11 1 0.597131 0.562565 0.578452
27 2 0.586473 0.564836 0.574142
130 2 0.564031 0.56926 0.593423
7 3 0.590478 0.590544 0.573729
100 1 0.580752 0.580666 0.600184
120 2 0.598748 0.592537 0.607667
102 1 0.571951 0.570017 0.601081
92 1 0.591251 0.584344 0.608934
3 3 0.606969 0.572596 0.572541
15 1 0.602271 0.586067 0.571552
39 2 0.602403 0.612165 0.568487
175 1 0.55637 0.607213 0.602558
203 2 0.564563 0.613919 0.600278
25 2 0.617649 0.548996 0.587335
4 3 0.620731 0.547969 0.565887
127 2 0.616325 0.58578 0.609199
30 2 0.622095 0.557391 0.566868
18 1 0.613917 0.595692 0.568285
21 1 0.612762 0.608796 0.56742
33 2 0.623553 0.59047 0.566263
38 2 0.620993 0.615153 0.564013
111 1 0.649928 0.539253 0.606299
80 3 0.649926 0.554374 0.606468
107 1 0.633123 0.572138 0.608497
135 2 0.636117 0.575915 0.598926
109 1 0.639803 0.560803 0.614027
99 1 0.621328 0.577746 0.613726
152 3 0.521864 0.620017 0.585161
212 2 0.51968 0.616483 0.564674
69 2 0.526079 0.636417 0.602046
43 3 0.524896 0.633214 0.610664
83 3 0.531023 0.656911 0.613611
77 2 0.589791 0.615926 0.590849
183 1 0.527659 0.619409 0.571764
72 2 0.584148 0.624349 0.612024
211 2 0.531074 0.629061 0.568774
60 1 0.581932 0.62294 0.591525
78 2 0.577818 0.626946 0.582277
46 3 0.55984 0.641832 0.597656
57 1 0.578888 0.627916 0.603319
54 1 0.568497 0.638432 0.606793
210 2 0.534739 0.524839 0.620905
209 2 0.527954 0.514267 0.633101
182 1 0.535295 0.522305 0.631429
151 3 0.530154 0.532314 0.640611
214 2 0.557603 0.522117 0.636429
213 2 0.547166 0.511242 0.645348
186 1 0.566965 0.502945 0.624098
153 3 0.552855 0.504411 0.625964
184 1 0.548968 0.5157 0.635577
216 2 0.561363 0.48451 0.614206
20 1 0.607578 0.521966 0.632205
36 2 0.602795 0.521987 0.642048
37 2 0.614282 0.513509 0.628924
17 1 0.603662 0.532221 0.623465
84 3 0.66132 0.519358 0.635481
119 1 0.663135 0.49039 0.637065
149 2 0.663358 0.479672 0.636929
148 2 0.658447 0.493862 0.646182
199 2 0.501534 0.612793 0.640869
171 1 0.511022 0.608607 0.644168
163 1 0.518545 0.600382 0.635188
191 2 0.514079 0.59562 0.626429
157 1 0.531327 0.596376 0.639897
159 1 0.535955 0.599714 0.653416
165 1 0.527841 0.60668 0.662594
178 1 0.541961 0.550164 0.626197
173 1 0.514986 0.610934 0.657414
201 2 0.508324 0.615495 0.664195
193 2 0.531004 0.609135 0.672638
180 1 0.534629 0.546108 0.637418
204 2 0.524262 0.552171 0.655544
196 2 0.52442 0.575943 0.649902
176 1 0.529748 0.554974 0.646789
168 1 0.530557 0.568836 0.644889
162 1 0.538753 0.57306 0.634069
206 2 0.545022 0.542561 0.619857
198 2 0.550779 0.568443 0.616903
170 1 0.54495 0.564107 0.624756
156 1 0.541985 0.588135 0.632786
131 2 0.580192 0.535404 0.657641
32 2 0.596645 0.539686 0.627841
123 2 0.57211 0.543514 0.635022
103 1 0.58452 0.544671 0.653407
129 2 0.595075 0.550341 0.671292
95 1 0.580699 0.548114 0.640074
167 1 0.554892 0.600751 0.614802
161 1 0.544287 0.592338 0.618093
101 1 0.593182 0.552529 0.661102
122 2 0.567582 0.55385 0.613437
94 1 0.574439 0.561106 0.611519
195 2 0.561757 0.603266 0.623135
160 1 0.549814 0.595522 0.654629
158 1 0.554776 0.589763 0.642478
86 1 0.592306 0.576203 0.620139
88 1 0.585268 0.563583 0.620082
89 1 0.588198 0.558131 0.633722
200 2 0.585785 0.581096 0.653649
164 1 0.567429 0.584764 0.64254
172 1 0.575189 0.584806 0.654719
192 2 0.571624 0.58161 0.633066
87 1 0.597884 0.565317 0.641766
85 1 0.602649 0.576738 0.631913
90 1 0.604618 0.590696 0.638255
98 1 0.593781 0.599163 0.635129
106 1 0.594212 0.612901 0.639492
93 1 0.600256 0.56354 0.655302
174 1 0.57034 0.591555 0.666343
166 1 0.556877 0.595717 0.666891
202 2 0.577149 0.592265 0.674408
126 2 0.585091 0.595847 0.629561
121 2 0.606693 0.570306 0.660855
125 2 0.6181 0.556999 0.640397
194 2 0.551671 0.600071 0.675279
96 1 0.615897 0.595017 0.646328
91 1 0.61611 0.571795 0.625465
104 1 0.616733 0.608858 0.648232
138 2 0.641987 0.535717 0.61176
133 2 0.638936 0.545347 0.629122
124 2 0.62308 0.58779 0.648326
132 2 0.625793 0.613052 0.652437
105 1 0.633786 0.554275 0.625205
97 1 0.622837 0.560778 0.631836
114 1 0.531001 0.644579 0.617068
73 2 0.510418 0.660595 0.687425
68 2 0.522027 0.629012 0.634686
144 2 0.532663 0.629384 0.649253
116 1 0.532119 0.629734 0.638468
52 1 0.530036 0.663277 0.659577
70 2 0.527994 0.648941 0.676686
55 1 0.524462 0.657756 0.6723
58 1 0.514769 0.664232 0.678235
44 3 0.526774 0.674693 0.654182
74 2 0.510677 0.673126 0.674244
40 3 0.540326 0.654724 0.654482
51 1 0.540121 0.639624 0.629463
61 2 0.537134 0.66544 0.636066
146 2 0.54125 0.620201 0.620175
147 2 0.553187 0.621304 0.634474
66 2 0.55409 0.655271 0.615172
108 1 0.606301 0.61783 0.644621
134 2 0.586536 0.62023 0.637644
79 3 0.60969 0.631092 0.648742
118 1 0.543379 0.624241 0.630066
63 2 0.555629 0.634393 0.651444
65 2 0.565177 0.662508 0.626799
50 1 0.5604 0.653111 0.623447
42 3 0.570634 0.643082 0.620134
136 2 0.596459 0.640677 0.636986
110 1 0.598707 0.640733 0.647356
45 3 0.566629 0.630298 0.669298
64 2 0.568709 0.635033 0.639478
62 2 0.552208 0.668343 0.644218
48 1 0.545372 0.660094 0.641739
71 2 0.583601 0.659201 0.67619
49 1 0.561016 0.641402 0.644341
41 3 0.568691 0.650141 0.654884
53 1 0.570636 0.64252 0.666824
47 1 0.551709 0.647822 0.63497
56 1 0.579266 0.649184 0.677128
59 1 0.580919 0.641544 0.6881
137 2 0.589802 0.635968 0.651226
112 1 0.60122 0.655128 0.653056
140 2 0.60104 0.655978 0.663497
67 2 0.582609 0.662516 0.652588
81 3 0.590871 0.6631 0.647098
141 2 0.610443 0.659313 0.649798
76 2 0.575701 0.632029 0.689589
75 2 0.586842 0.645368 0.697021
