ITEM: TIMESTEP
1265000
ITEM: NUMBER OF ATOMS
220
ITEM: BOX BOUNDS ff ff ff
-5.0000000000000000e+01 5.0000000000000000e+01
-5.0000000000000000e+01 5.0000000000000000e+01
-5.0000000000000000e+01 5.0000000000000000e+01
ITEM: ATOMS id type xs ys zs
75 2 0.527547 0.550607 0.519508
76 2 0.532492 0.534631 0.526577
10 1 0.549733 0.60194 0.542342
25 2 0.540582 0.606996 0.542263
59 1 0.533073 0.545273 0.527338
14 1 0.548311 0.6066 0.518184
2 3 0.556393 0.602054 0.528937
37 2 0.532851 0.602653 0.495549
6 3 0.536799 0.612785 0.518956
24 2 0.5473 0.590844 0.541186
56 1 0.541638 0.551371 0.535562
36 2 0.540944 0.587078 0.489435
32 2 0.555837 0.587779 0.505151
20 1 0.541155 0.596183 0.495893
17 1 0.54954 0.596728 0.506566
146 2 0.539589 0.52274 0.607545
147 2 0.53631 0.522746 0.589916
43 3 0.549979 0.537609 0.620019
118 1 0.543352 0.525371 0.597455
116 1 0.55731 0.523 0.595331
144 2 0.56222 0.519652 0.586627
68 2 0.562463 0.519639 0.6051
55 1 0.593165 0.554918 0.589691
114 1 0.553726 0.545974 0.609187
51 1 0.552722 0.538388 0.59595
52 1 0.589617 0.541453 0.583874
44 3 0.599576 0.533255 0.58178
58 1 0.60602 0.55803 0.593497
74 2 0.614744 0.552144 0.592515
46 3 0.522285 0.576289 0.588434
71 2 0.543751 0.561263 0.535985
66 2 0.541375 0.560637 0.573679
78 2 0.516841 0.59979 0.594723
54 1 0.534377 0.578731 0.592841
28 2 0.543365 0.607207 0.57025
60 1 0.524993 0.599195 0.601575
70 2 0.584848 0.561685 0.592031
1 3 0.567912 0.583877 0.551207
31 2 0.57211 0.559777 0.545826
23 2 0.57507 0.603248 0.543138
64 2 0.540105 0.533328 0.569871
45 3 0.540877 0.5302 0.546204
13 1 0.577155 0.576885 0.55977
5 3 0.583334 0.580901 0.57031
35 2 0.597893 0.558046 0.562461
16 1 0.579246 0.563532 0.553399
40 3 0.576358 0.538574 0.581206
9 1 0.571454 0.59858 0.552457
47 1 0.55335 0.546003 0.582445
63 2 0.558013 0.530966 0.566614
50 1 0.544499 0.558031 0.583901
49 1 0.549884 0.538271 0.570148
41 3 0.553548 0.546876 0.557925
53 1 0.546967 0.541578 0.546672
29 2 0.558719 0.597621 0.574951
48 1 0.567202 0.551174 0.580821
42 3 0.546621 0.571978 0.590014
62 2 0.568963 0.556912 0.571911
30 2 0.550294 0.577701 0.565884
12 1 0.550807 0.598496 0.567471
4 3 0.543796 0.585627 0.56573
8 1 0.55781 0.603612 0.554902
65 2 0.536126 0.556259 0.590312
61 2 0.572044 0.556962 0.589061
57 1 0.536037 0.591198 0.600863
72 2 0.545449 0.594389 0.604982
112 1 0.620528 0.59568 0.593619
140 2 0.615659 0.604542 0.589267
79 3 0.602758 0.590593 0.61165
141 2 0.631428 0.597306 0.592698
110 1 0.617287 0.593123 0.60804
19 1 0.589831 0.555604 0.555435
34 2 0.59041 0.545322 0.552191
81 3 0.618492 0.583757 0.584881
67 2 0.610635 0.586915 0.579875
22 2 0.578247 0.601236 0.562001
83 3 0.559042 0.557724 0.608849
202 2 0.569792 0.592802 0.601956
200 2 0.586219 0.608257 0.609641
137 2 0.622368 0.584825 0.611621
33 2 0.586148 0.633308 0.588306
38 2 0.59285 0.655135 0.589118
21 1 0.583769 0.6533 0.583588
18 1 0.579823 0.640624 0.582353
27 2 0.56303 0.623526 0.54943
77 2 0.524464 0.608704 0.606998
39 2 0.580588 0.660762 0.576865
7 3 0.565436 0.646987 0.564317
15 1 0.569317 0.637055 0.572108
11 1 0.559488 0.618612 0.557551
26 2 0.550304 0.624833 0.559929
3 3 0.567018 0.623305 0.569731
142 2 0.527142 0.534834 0.646496
138 2 0.527829 0.535367 0.674188
139 2 0.539839 0.547473 0.672271
69 2 0.552439 0.544356 0.627474
111 1 0.534867 0.539554 0.667014
80 3 0.546148 0.529859 0.666199
109 1 0.558535 0.535856 0.662682
133 2 0.570869 0.519441 0.669488
105 1 0.570695 0.529232 0.6658
121 2 0.605182 0.536226 0.635995
97 1 0.583061 0.534602 0.661601
125 2 0.592053 0.527887 0.660884
73 2 0.608314 0.567988 0.596754
93 1 0.611269 0.535906 0.643841
129 2 0.623306 0.520581 0.637117
101 1 0.622611 0.528094 0.644372
103 1 0.631986 0.529459 0.655502
131 2 0.641531 0.52579 0.652926
95 1 0.629077 0.537141 0.666684
113 1 0.529812 0.542768 0.653118
145 2 0.492331 0.556887 0.644109
117 1 0.499481 0.556642 0.635901
119 1 0.493726 0.560329 0.624254
149 2 0.48406 0.563274 0.623674
148 2 0.498849 0.558624 0.61525
84 3 0.521557 0.548374 0.62711
115 1 0.514285 0.551734 0.636885
82 3 0.516911 0.550723 0.650911
193 2 0.539022 0.571945 0.638937
201 2 0.532124 0.565689 0.661615
136 2 0.61881 0.600959 0.6148
143 2 0.537975 0.547282 0.646765
135 2 0.550127 0.554669 0.654598
107 1 0.559644 0.54948 0.658348
194 2 0.557271 0.576195 0.6181
174 1 0.570953 0.593608 0.612539
99 1 0.571903 0.556094 0.656784
165 1 0.543625 0.57641 0.647344
132 2 0.584772 0.573233 0.615714
127 2 0.572591 0.566592 0.654368
87 1 0.609396 0.544733 0.65474
91 1 0.584126 0.548154 0.65854
85 1 0.597594 0.554869 0.65653
98 1 0.610216 0.571508 0.644355
86 1 0.600377 0.561262 0.670609
90 1 0.598389 0.563646 0.643397
166 1 0.563887 0.584819 0.621112
96 1 0.589075 0.562561 0.632777
124 2 0.580343 0.556316 0.633063
192 2 0.589614 0.613184 0.635206
172 1 0.580187 0.603078 0.617418
164 1 0.581809 0.606813 0.631077
161 1 0.581581 0.60266 0.661181
156 1 0.56848 0.603511 0.652958
160 1 0.563129 0.589697 0.63419
158 1 0.571119 0.60139 0.638386
120 2 0.586224 0.577162 0.672454
92 1 0.5948 0.572582 0.676948
159 1 0.554257 0.586089 0.645544
157 1 0.558414 0.593325 0.657353
108 1 0.602363 0.582279 0.623319
104 1 0.591905 0.572885 0.622913
88 1 0.610316 0.553639 0.677219
179 1 0.605805 0.600315 0.678043
106 1 0.611457 0.581275 0.634154
169 1 0.593166 0.596605 0.656787
197 2 0.592189 0.590896 0.647892
177 1 0.604837 0.595402 0.664579
205 2 0.61265 0.589686 0.659914
175 1 0.594282 0.607421 0.681815
167 1 0.582794 0.609318 0.673787
163 1 0.55355 0.589369 0.670066
191 2 0.557888 0.594946 0.678388
173 1 0.539741 0.573299 0.660787
171 1 0.544573 0.578916 0.672887
89 1 0.616383 0.544852 0.666936
126 2 0.617069 0.569443 0.653102
134 2 0.620042 0.588177 0.635046
123 2 0.63674 0.539222 0.674127
185 1 0.660982 0.596066 0.696471
212 2 0.647764 0.584178 0.683257
152 3 0.648923 0.601989 0.692546
183 1 0.639861 0.590005 0.688392
211 2 0.637346 0.5838 0.697126
181 1 0.62814 0.592044 0.679254
207 2 0.62425 0.583071 0.674489
154 3 0.664581 0.583509 0.69533
208 2 0.632274 0.599679 0.672433
150 3 0.617251 0.599427 0.686685
206 2 0.534682 0.637274 0.651678
198 2 0.541747 0.613864 0.653915
216 2 0.574804 0.710581 0.661145
186 1 0.576408 0.691094 0.648688
153 3 0.56996 0.686703 0.660698
188 1 0.579397 0.706084 0.651864
210 2 0.551864 0.677826 0.648061
214 2 0.565262 0.670356 0.671734
155 3 0.581836 0.685204 0.638611
203 2 0.594914 0.611922 0.692263
195 2 0.576173 0.61716 0.676999
184 1 0.567992 0.671816 0.6609
213 2 0.576054 0.664668 0.658822
209 2 0.563574 0.667647 0.640246
182 1 0.557754 0.66911 0.648999
151 3 0.548586 0.657851 0.651252
170 1 0.548904 0.621209 0.654167
162 1 0.562896 0.617617 0.655086
178 1 0.544741 0.634457 0.652757
196 2 0.582787 0.626097 0.65272
168 1 0.572163 0.628092 0.653603
180 1 0.554098 0.644587 0.652415
204 2 0.574441 0.648888 0.651405
176 1 0.567608 0.641271 0.65288
190 1 0.586956 0.712935 0.643174
219 2 0.589029 0.709308 0.633176
220 2 0.589194 0.723685 0.645596
100 1 0.600232 0.576087 0.689529
128 2 0.595547 0.582856 0.695276
102 1 0.611083 0.569204 0.695594
130 2 0.613428 0.57352 0.705523
199 2 0.541864 0.575816 0.683486
94 1 0.616279 0.557531 0.689794
122 2 0.625467 0.55322 0.692137
187 1 0.671366 0.607015 0.699675
189 1 0.681116 0.601103 0.706827
217 2 0.681188 0.58971 0.707977
218 2 0.689236 0.606387 0.711614
215 2 0.669965 0.617445 0.698228
