ITEM: TIMESTEP
795000
ITEM: NUMBER OF ATOMS
220
ITEM: BOX BOUNDS ff ff ff
-5.0000000000000000e+01 5.0000000000000000e+01
-5.0000000000000000e+01 5.0000000000000000e+01
-5.0000000000000000e+01 5.0000000000000000e+01
ITEM: ATOMS id type xs ys zs
37 2 0.520962 0.562543 0.529482
20 1 0.531913 0.564579 0.530771
36 2 0.536575 0.56862 0.521997
7 3 0.535439 0.532808 0.618022
17 1 0.539774 0.562793 0.541778
32 2 0.550549 0.563505 0.541446
6 3 0.51979 0.556604 0.550582
10 1 0.526028 0.557841 0.577041
24 2 0.521932 0.547895 0.579317
25 2 0.518345 0.563424 0.572202
8 1 0.533862 0.564892 0.589234
9 1 0.524878 0.575363 0.597176
1 3 0.513229 0.578313 0.588517
2 3 0.537555 0.558326 0.567349
14 1 0.531961 0.558768 0.554046
13 1 0.505196 0.589179 0.594048
22 2 0.529745 0.584266 0.599871
3 3 0.534699 0.5568 0.614567
23 2 0.521114 0.570942 0.606212
31 2 0.490856 0.586565 0.577123
16 1 0.49229 0.59088 0.586943
19 1 0.481732 0.596019 0.592562
77 2 0.525988 0.601134 0.568146
60 1 0.531935 0.605625 0.575289
5 3 0.508046 0.596995 0.604139
35 2 0.481514 0.598489 0.602976
130 2 0.589134 0.544133 0.601707
78 2 0.5421 0.604081 0.574148
12 1 0.545993 0.573829 0.584789
28 2 0.543391 0.579368 0.575392
30 2 0.551883 0.591736 0.59421
11 1 0.537844 0.554317 0.59967
29 2 0.552225 0.565784 0.580707
27 2 0.533385 0.544667 0.597219
4 3 0.553106 0.582046 0.594211
26 2 0.548717 0.552402 0.599786
207 2 0.58377 0.602566 0.581532
205 2 0.569937 0.609757 0.615821
150 3 0.589754 0.596264 0.598996
179 1 0.58441 0.593834 0.612406
177 1 0.573499 0.599938 0.618661
181 1 0.581298 0.606289 0.591685
208 2 0.570452 0.6053 0.593928
203 2 0.60065 0.57818 0.61321
46 3 0.547796 0.607821 0.598735
102 1 0.597737 0.547774 0.607223
128 2 0.608267 0.557519 0.590335
100 1 0.607992 0.555435 0.600784
142 2 0.689033 0.565695 0.613894
84 3 0.67784 0.580112 0.590533
113 1 0.686557 0.575131 0.618759
115 1 0.670564 0.582409 0.600994
117 1 0.657213 0.590376 0.598922
82 3 0.672757 0.581004 0.614852
145 2 0.651103 0.594252 0.606821
148 2 0.657836 0.587696 0.578245
119 1 0.652612 0.592151 0.586649
149 2 0.643145 0.596163 0.58468
120 2 0.624819 0.568522 0.604995
92 1 0.617593 0.561305 0.609618
143 2 0.694135 0.581488 0.614398
34 2 0.472176 0.59786 0.587877
72 2 0.517796 0.616911 0.585474
57 1 0.52837 0.613933 0.585279
54 1 0.538376 0.616657 0.596458
42 3 0.535524 0.627857 0.604524
62 2 0.535803 0.653087 0.61327
183 1 0.58612 0.620532 0.593178
211 2 0.582099 0.624792 0.602574
212 2 0.597218 0.620435 0.592666
152 3 0.581348 0.629155 0.581414
154 3 0.56309 0.634455 0.595567
66 2 0.553644 0.630927 0.613615
185 1 0.568677 0.63443 0.583883
218 2 0.548493 0.656162 0.565575
215 2 0.567743 0.640589 0.56198
52 1 0.557559 0.664135 0.610205
55 1 0.57186 0.669623 0.608663
217 2 0.549551 0.654725 0.582981
187 1 0.563223 0.641988 0.571486
189 1 0.553906 0.651798 0.573769
44 3 0.548703 0.66707 0.601353
58 1 0.575764 0.67812 0.598676
73 2 0.585561 0.682304 0.598199
40 3 0.555866 0.654707 0.620874
70 2 0.578631 0.667306 0.616725
74 2 0.569955 0.679647 0.58956
220 2 0.545503 0.455489 0.64346
190 1 0.555029 0.460389 0.640925
219 2 0.562927 0.460247 0.64796
188 1 0.555068 0.469751 0.631165
18 1 0.532199 0.548673 0.636804
38 2 0.535816 0.538521 0.655776
39 2 0.53593 0.529193 0.64053
21 1 0.534017 0.538335 0.645382
216 2 0.54604 0.47149 0.624674
186 1 0.56805 0.477349 0.628342
153 3 0.56527 0.486509 0.617809
155 3 0.578829 0.477139 0.635454
213 2 0.584943 0.49283 0.621963
210 2 0.57985 0.518145 0.61575
209 2 0.56377 0.513036 0.61311
214 2 0.578853 0.497154 0.605764
184 1 0.576161 0.496566 0.615929
182 1 0.572058 0.511105 0.619783
151 3 0.569978 0.51449 0.633779
180 1 0.56947 0.528856 0.635917
206 2 0.562656 0.534242 0.616233
204 2 0.574414 0.527301 0.656909
176 1 0.571975 0.534161 0.648959
122 2 0.588573 0.539287 0.62546
178 1 0.565916 0.538337 0.626226
123 2 0.593461 0.536425 0.651887
131 2 0.600592 0.541339 0.675265
33 2 0.529925 0.558655 0.640518
199 2 0.521741 0.58248 0.631995
201 2 0.51856 0.5965 0.652355
171 1 0.530003 0.583519 0.639138
173 1 0.527787 0.590285 0.651635
193 2 0.537392 0.597405 0.669095
165 1 0.538645 0.591175 0.660431
15 1 0.533786 0.544999 0.622127
94 1 0.596902 0.544468 0.621035
175 1 0.591432 0.582795 0.617588
170 1 0.56464 0.552021 0.628873
191 2 0.544451 0.572804 0.626979
163 1 0.542592 0.577269 0.636268
198 2 0.563338 0.559443 0.620855
200 2 0.59779 0.578925 0.681284
197 2 0.558764 0.597725 0.634404
196 2 0.576011 0.551561 0.662084
169 1 0.567935 0.593457 0.630149
168 1 0.572541 0.548099 0.652041
157 1 0.552757 0.577485 0.646295
159 1 0.55043 0.583585 0.658936
161 1 0.573765 0.581133 0.634249
156 1 0.567341 0.571591 0.645132
158 1 0.572934 0.575747 0.658992
160 1 0.562875 0.58191 0.666968
162 1 0.567886 0.55659 0.642038
164 1 0.586028 0.575282 0.664117
167 1 0.585704 0.576633 0.628668
172 1 0.587442 0.579761 0.677436
192 2 0.594501 0.570164 0.65861
195 2 0.590285 0.567357 0.632546
166 1 0.564721 0.587409 0.680382
174 1 0.577508 0.586463 0.68574
194 2 0.557027 0.592152 0.685767
104 1 0.618612 0.602958 0.645492
108 1 0.614554 0.609217 0.633249
71 2 0.581803 0.607582 0.640462
75 2 0.595244 0.605271 0.660214
202 2 0.579147 0.590732 0.695042
59 1 0.586634 0.611182 0.660958
56 1 0.579743 0.613396 0.649778
76 2 0.583831 0.615774 0.670223
132 2 0.619829 0.609385 0.654161
88 1 0.607038 0.54992 0.629161
95 1 0.601212 0.543867 0.654146
103 1 0.605378 0.546224 0.667266
89 1 0.608457 0.55047 0.644067
124 2 0.624351 0.585412 0.655906
134 2 0.611558 0.604816 0.611966
106 1 0.615242 0.601716 0.62151
96 1 0.622528 0.589506 0.6461
138 2 0.684387 0.580065 0.639455
80 3 0.682029 0.559531 0.636897
126 2 0.619756 0.581959 0.612288
98 1 0.619624 0.587909 0.621445
86 1 0.616776 0.559115 0.623513
133 2 0.664208 0.542584 0.622084
101 1 0.616683 0.55429 0.671025
105 1 0.660239 0.551492 0.627394
135 2 0.668684 0.577886 0.64893
127 2 0.644083 0.58223 0.646531
111 1 0.68877 0.572125 0.633757
107 1 0.662362 0.572434 0.641733
87 1 0.619226 0.559664 0.647062
93 1 0.623098 0.561644 0.660423
125 2 0.638801 0.546842 0.622524
97 1 0.646558 0.554181 0.626391
109 1 0.668004 0.560848 0.635372
91 1 0.640342 0.565215 0.633113
85 1 0.624869 0.566152 0.634303
99 1 0.648344 0.573913 0.641054
90 1 0.62203 0.582009 0.633905
121 2 0.631982 0.567646 0.662637
129 2 0.619167 0.555801 0.681068
139 2 0.700051 0.571496 0.636263
147 2 0.516291 0.627831 0.612429
144 2 0.528002 0.612891 0.630067
118 1 0.514146 0.629173 0.623245
146 2 0.504385 0.63159 0.625742
116 1 0.520534 0.620261 0.632745
68 2 0.514819 0.616323 0.641462
43 3 0.507398 0.642705 0.645236
69 2 0.504035 0.640436 0.654473
114 1 0.521535 0.644118 0.64486
51 1 0.526252 0.634552 0.633738
83 3 0.528663 0.651766 0.652336
48 1 0.541239 0.651334 0.62303
61 2 0.535292 0.659212 0.6288
50 1 0.543936 0.627839 0.617093
65 2 0.544381 0.6174 0.620434
67 2 0.574683 0.644038 0.619995
137 2 0.59239 0.620203 0.623203
47 1 0.540149 0.637292 0.628255
64 2 0.546166 0.632442 0.64837
136 2 0.604781 0.62951 0.616716
81 3 0.5841 0.646968 0.621296
112 1 0.591781 0.64009 0.631217
110 1 0.599483 0.627642 0.626035
141 2 0.599503 0.646837 0.635432
49 1 0.550826 0.63639 0.639194
140 2 0.584869 0.637201 0.639415
63 2 0.555564 0.645629 0.641082
41 3 0.56119 0.625769 0.63827
53 1 0.568052 0.623184 0.650642
45 3 0.565173 0.628258 0.662465
79 3 0.609694 0.622607 0.635347
