ITEM: TIMESTEP
320000
ITEM: NUMBER OF ATOMS
220
ITEM: BOX BOUNDS ff ff ff
-5.0000000000000000e+01 5.0000000000000000e+01
-5.0000000000000000e+01 5.0000000000000000e+01
-5.0000000000000000e+01 5.0000000000000000e+01
ITEM: ATOMS id type xs ys zs
21 1 0.52846 0.611944 0.516315
18 1 0.523184 0.604264 0.526179
38 2 0.523708 0.612839 0.50649
39 2 0.538202 0.616531 0.517391
33 2 0.513789 0.599266 0.525632
217 2 0.579179 0.592041 0.535995
218 2 0.571395 0.608119 0.534512
35 2 0.559627 0.53078 0.578509
34 2 0.57449 0.531869 0.568412
219 2 0.534535 0.538306 0.603999
15 1 0.531927 0.603071 0.538693
25 2 0.509224 0.580213 0.581653
10 1 0.514556 0.587046 0.574838
24 2 0.508637 0.585557 0.566253
6 3 0.507485 0.59073 0.601137
2 3 0.512504 0.600919 0.579872
14 1 0.508628 0.601237 0.593759
8 1 0.529262 0.582304 0.571479
17 1 0.505652 0.614524 0.600344
22 2 0.519413 0.567743 0.559155
11 1 0.534706 0.591783 0.560279
3 3 0.526136 0.593698 0.548102
9 1 0.527733 0.567362 0.566461
27 2 0.53642 0.601889 0.564356
23 2 0.524244 0.561004 0.574762
30 2 0.530382 0.583564 0.60007
4 3 0.534252 0.576054 0.595848
7 3 0.542673 0.609919 0.539834
26 2 0.543881 0.588064 0.556211
28 2 0.543734 0.592155 0.586435
19 1 0.564545 0.535697 0.570829
12 1 0.539511 0.582245 0.583636
5 3 0.539995 0.545433 0.57876
1 3 0.540026 0.561666 0.560717
190 1 0.542614 0.543765 0.608537
29 2 0.547811 0.576031 0.580597
220 2 0.546635 0.551673 0.601934
13 1 0.545661 0.550999 0.568634
183 1 0.572315 0.574328 0.582129
207 2 0.569635 0.563667 0.600708
211 2 0.583315 0.573509 0.580761
212 2 0.56779 0.565731 0.577163
208 2 0.559007 0.577643 0.598299
181 1 0.569185 0.573905 0.597287
150 3 0.578068 0.582863 0.605253
61 2 0.551133 0.595566 0.613073
152 3 0.56732 0.58625 0.574779
154 3 0.579739 0.577105 0.555623
185 1 0.572334 0.586241 0.561405
16 1 0.559319 0.546412 0.564353
31 2 0.565235 0.551655 0.557014
128 2 0.592416 0.554308 0.59989
187 1 0.568283 0.59831 0.55303
100 1 0.594071 0.554745 0.61025
189 1 0.573054 0.599257 0.540641
48 1 0.551029 0.605997 0.610826
40 3 0.540725 0.609804 0.600325
215 2 0.562281 0.606139 0.557933
62 2 0.56104 0.609039 0.607355
130 2 0.578133 0.540828 0.613631
120 2 0.610893 0.568177 0.609212
148 2 0.731959 0.558019 0.586812
149 2 0.72678 0.561015 0.569411
119 1 0.724404 0.560371 0.580042
145 2 0.703931 0.56373 0.577773
117 1 0.712122 0.561943 0.584654
82 3 0.697274 0.563653 0.604318
115 1 0.710452 0.560639 0.59993
84 3 0.720776 0.556913 0.606767
32 2 0.505611 0.623594 0.594485
70 2 0.525465 0.618248 0.581357
73 2 0.532256 0.628385 0.560052
55 1 0.535996 0.619733 0.578877
146 2 0.534381 0.643598 0.607277
147 2 0.52403 0.629517 0.611239
118 1 0.532415 0.635606 0.614419
58 1 0.539473 0.625204 0.56759
74 2 0.549857 0.625838 0.564252
52 1 0.546756 0.615163 0.58857
44 3 0.559356 0.617247 0.58673
83 3 0.570047 0.628418 0.618734
213 2 0.531329 0.521224 0.650803
155 3 0.532061 0.523316 0.625305
210 2 0.544941 0.510739 0.670376
151 3 0.543311 0.530913 0.673356
214 2 0.542884 0.510703 0.644793
184 1 0.542328 0.519886 0.650926
186 1 0.541584 0.530887 0.629531
153 3 0.548233 0.530506 0.642376
182 1 0.54828 0.519163 0.665136
206 2 0.567041 0.535506 0.658462
209 2 0.559189 0.518907 0.665231
20 1 0.50344 0.614236 0.613757
65 2 0.52418 0.609822 0.622499
37 2 0.50352 0.604676 0.618893
57 1 0.528397 0.569688 0.634715
60 1 0.520913 0.561516 0.642199
54 1 0.52625 0.584558 0.635522
78 2 0.512617 0.565568 0.647719
46 3 0.517588 0.589637 0.643782
199 2 0.527463 0.608712 0.662977
77 2 0.523288 0.550661 0.642295
66 2 0.531284 0.609339 0.638256
204 2 0.533993 0.554108 0.680338
171 1 0.53706 0.606257 0.667972
50 1 0.533162 0.60676 0.627571
42 3 0.534468 0.591655 0.626443
72 2 0.53622 0.565603 0.628475
205 2 0.555384 0.571759 0.618511
173 1 0.542485 0.614692 0.67795
191 2 0.539874 0.588293 0.655646
92 1 0.604509 0.562576 0.615699
102 1 0.585438 0.546749 0.618326
188 1 0.547499 0.541708 0.620698
122 2 0.581687 0.540637 0.638884
123 2 0.591641 0.539917 0.66299
131 2 0.606574 0.542101 0.683149
180 1 0.549741 0.54326 0.669607
216 2 0.555872 0.54767 0.624185
178 1 0.561843 0.544163 0.662297
176 1 0.543202 0.554776 0.674998
179 1 0.574599 0.582393 0.619187
196 2 0.545617 0.575796 0.678433
63 2 0.553924 0.601389 0.639493
163 1 0.543979 0.5953 0.662663
165 1 0.555146 0.611662 0.683852
197 2 0.552204 0.571469 0.642958
203 2 0.5927 0.594021 0.623773
175 1 0.584079 0.588888 0.627906
177 1 0.562931 0.576415 0.624755
169 1 0.560942 0.576277 0.638876
198 2 0.576416 0.558221 0.653557
157 1 0.557029 0.59314 0.66769
170 1 0.567499 0.556875 0.659771
159 1 0.562467 0.600741 0.678313
168 1 0.549424 0.567183 0.67334
161 1 0.570276 0.582791 0.64742
156 1 0.567192 0.582563 0.662693
158 1 0.579345 0.585371 0.671627
160 1 0.576615 0.596277 0.680249
162 1 0.561221 0.568028 0.665336
164 1 0.591403 0.577935 0.672381
167 1 0.582012 0.588618 0.642013
172 1 0.601278 0.58196 0.6816
192 2 0.593816 0.570084 0.665189
195 2 0.589263 0.593345 0.648762
200 2 0.610773 0.576668 0.682245
94 1 0.587514 0.546515 0.63227
88 1 0.597779 0.554674 0.637639
104 1 0.610741 0.606421 0.65017
86 1 0.606504 0.562826 0.629389
132 2 0.609069 0.610925 0.659931
49 1 0.555656 0.611105 0.633906
166 1 0.586743 0.6004 0.689425
89 1 0.603591 0.554232 0.651442
95 1 0.600372 0.546111 0.662713
103 1 0.608786 0.547542 0.673985
174 1 0.598689 0.593009 0.690342
124 2 0.611438 0.586437 0.658604
47 1 0.54574 0.613304 0.622757
96 1 0.611922 0.592433 0.64967
106 1 0.614948 0.608139 0.626047
108 1 0.612254 0.614087 0.638524
134 2 0.617278 0.614153 0.617436
64 2 0.565468 0.609292 0.630108
45 3 0.577218 0.611972 0.651778
194 2 0.585099 0.608746 0.696268
133 2 0.651152 0.543861 0.61838
87 1 0.614704 0.563308 0.650987
101 1 0.619406 0.556837 0.673926
138 2 0.67952 0.577324 0.621066
98 1 0.615552 0.594065 0.625499
90 1 0.614658 0.586689 0.637284
85 1 0.616837 0.571005 0.637414
126 2 0.617956 0.588837 0.616075
80 3 0.671003 0.557677 0.621238
111 1 0.682033 0.567173 0.62453
105 1 0.648312 0.553331 0.623344
139 2 0.681973 0.568113 0.635503
109 1 0.658396 0.562341 0.626142
125 2 0.627916 0.547654 0.625407
91 1 0.631366 0.567746 0.633422
97 1 0.634851 0.55566 0.627226
99 1 0.641939 0.57715 0.63629
107 1 0.655307 0.574127 0.63351
121 2 0.632024 0.570743 0.661476
127 2 0.639554 0.586331 0.641045
135 2 0.662611 0.581239 0.635952
93 1 0.622974 0.564296 0.662124
129 2 0.625534 0.558111 0.683011
142 2 0.697773 0.551636 0.621887
113 1 0.695809 0.562151 0.619403
143 2 0.703578 0.567748 0.624262
36 2 0.501571 0.622984 0.61971
201 2 0.536989 0.623582 0.68108
144 2 0.528704 0.633125 0.636422
116 1 0.535231 0.637609 0.628965
68 2 0.539619 0.647339 0.631786
41 3 0.556413 0.622264 0.644034
69 2 0.565961 0.652883 0.618437
43 3 0.557335 0.648688 0.615749
114 1 0.559101 0.634757 0.617233
141 2 0.592944 0.652557 0.62118
53 1 0.568154 0.620971 0.651978
76 2 0.585512 0.622618 0.67087
56 1 0.569017 0.632347 0.662275
59 1 0.579124 0.630979 0.671261
71 2 0.561826 0.640284 0.662423
75 2 0.581425 0.638509 0.678535
51 1 0.545031 0.628227 0.620279
137 2 0.59816 0.626981 0.622891
67 2 0.58022 0.63603 0.637
110 1 0.604376 0.634337 0.627753
81 3 0.585396 0.643643 0.639143
112 1 0.596727 0.647427 0.6306
140 2 0.602764 0.655462 0.635165
193 2 0.559973 0.617932 0.691131
79 3 0.610057 0.628223 0.639979
136 2 0.612585 0.635979 0.621171
202 2 0.606303 0.595837 0.69732
