ITEM: TIMESTEP
365000
ITEM: NUMBER OF ATOMS
220
ITEM: BOX BOUNDS ff ff ff
-5.0000000000000000e+01 5.0000000000000000e+01
-5.0000000000000000e+01 5.0000000000000000e+01
-5.0000000000000000e+01 5.0000000000000000e+01
ITEM: ATOMS id type xs ys zs
18 1 0.52813 0.583552 0.523582
21 1 0.531289 0.588072 0.511422
38 2 0.527677 0.582916 0.502118
33 2 0.522335 0.574884 0.524299
39 2 0.535892 0.597322 0.511154
15 1 0.533282 0.590485 0.536299
7 3 0.542226 0.599409 0.534842
217 2 0.577986 0.601123 0.538177
218 2 0.566882 0.614611 0.541533
155 3 0.529111 0.526649 0.616629
35 2 0.583962 0.538942 0.571263
34 2 0.596772 0.551032 0.564256
19 1 0.586507 0.548303 0.566652
25 2 0.520873 0.568642 0.585046
10 1 0.52145 0.576854 0.577947
24 2 0.515026 0.574227 0.569532
6 3 0.515483 0.576614 0.605165
2 3 0.51563 0.589111 0.583894
14 1 0.51319 0.587002 0.597876
17 1 0.507401 0.599637 0.604348
22 2 0.534727 0.559427 0.560927
3 3 0.528612 0.58372 0.548294
8 1 0.536003 0.578859 0.572635
11 1 0.537562 0.587371 0.559412
27 2 0.534937 0.597563 0.562583
30 2 0.538457 0.581832 0.601506
32 2 0.504934 0.608224 0.597777
65 2 0.527391 0.612282 0.618718
20 1 0.504968 0.59949 0.617492
23 2 0.541181 0.557683 0.576797
9 1 0.541237 0.564677 0.568352
219 2 0.540885 0.537737 0.594774
5 3 0.559567 0.5423 0.572274
189 1 0.572818 0.606912 0.545595
4 3 0.545185 0.578155 0.59579
12 1 0.54592 0.585464 0.583116
1 3 0.555119 0.564819 0.562816
26 2 0.548102 0.587802 0.556734
190 1 0.548557 0.54248 0.600827
220 2 0.554857 0.549267 0.595717
28 2 0.54346 0.595522 0.584843
29 2 0.556266 0.585283 0.57971
13 1 0.56301 0.553429 0.566663
183 1 0.585044 0.576794 0.583192
207 2 0.584914 0.565579 0.601745
211 2 0.595822 0.576497 0.581744
212 2 0.581317 0.568837 0.576917
208 2 0.570221 0.573477 0.598216
181 1 0.580677 0.574845 0.597726
150 3 0.585623 0.585108 0.607178
61 2 0.556452 0.60677 0.6022
152 3 0.578809 0.589726 0.578026
154 3 0.590531 0.586184 0.556829
185 1 0.582269 0.59243 0.564437
16 1 0.577411 0.557167 0.563246
31 2 0.580095 0.565906 0.557932
187 1 0.573432 0.603893 0.558787
215 2 0.567762 0.609944 0.565764
48 1 0.550667 0.615791 0.603881
44 3 0.551671 0.621199 0.575634
145 2 0.676974 0.57412 0.565409
82 3 0.678935 0.562816 0.588485
113 1 0.681973 0.55702 0.601861
80 3 0.659066 0.553177 0.613118
133 2 0.637925 0.540288 0.616421
142 2 0.681885 0.545974 0.601455
149 2 0.693479 0.573715 0.546889
148 2 0.705484 0.563357 0.556437
119 1 0.695767 0.568753 0.556232
117 1 0.686589 0.568542 0.566229
115 1 0.689762 0.560737 0.578951
84 3 0.701302 0.555408 0.58094
143 2 0.692034 0.55994 0.604341
70 2 0.517715 0.618728 0.578605
73 2 0.520181 0.622232 0.554287
55 1 0.527426 0.619092 0.573791
58 1 0.528543 0.62115 0.560404
40 3 0.538252 0.616509 0.595401
74 2 0.537538 0.621194 0.555087
36 2 0.501277 0.608391 0.622223
146 2 0.529779 0.64797 0.611054
147 2 0.523571 0.630317 0.61071
62 2 0.557477 0.623909 0.600314
52 1 0.540438 0.619114 0.581619
213 2 0.521823 0.531262 0.64176
210 2 0.528532 0.51796 0.662954
151 3 0.528197 0.539264 0.664752
184 1 0.53175 0.527533 0.64356
214 2 0.53131 0.517673 0.638943
182 1 0.533898 0.526826 0.658756
153 3 0.541078 0.53597 0.636075
209 2 0.544658 0.525572 0.660734
206 2 0.554777 0.538665 0.654728
122 2 0.584465 0.536007 0.660827
123 2 0.59915 0.539156 0.682204
72 2 0.536239 0.568604 0.621953
37 2 0.506756 0.590581 0.623821
57 1 0.531115 0.572516 0.630176
60 1 0.524649 0.564839 0.638909
54 1 0.530841 0.587916 0.63261
78 2 0.519834 0.568573 0.648056
46 3 0.523492 0.592262 0.642083
77 2 0.523309 0.554153 0.636863
66 2 0.53505 0.612341 0.633835
204 2 0.523065 0.563585 0.672352
50 1 0.536745 0.609623 0.623682
42 3 0.53894 0.594733 0.623047
176 1 0.533416 0.562314 0.668741
188 1 0.548543 0.541998 0.614334
186 1 0.53873 0.533501 0.622108
130 2 0.571718 0.536674 0.638249
171 1 0.540585 0.613475 0.666944
205 2 0.560928 0.576951 0.614727
128 2 0.579272 0.553327 0.621335
191 2 0.542352 0.597935 0.650987
196 2 0.538008 0.583373 0.671082
180 1 0.538156 0.549801 0.663908
100 1 0.584852 0.552194 0.630562
120 2 0.597795 0.568713 0.626403
92 1 0.59589 0.560804 0.633382
102 1 0.580409 0.542845 0.640386
216 2 0.555439 0.548258 0.619767
178 1 0.551265 0.548124 0.658778
179 1 0.580224 0.585413 0.620642
63 2 0.561431 0.604439 0.628277
163 1 0.546836 0.602779 0.659401
197 2 0.552603 0.575688 0.638543
203 2 0.596694 0.596811 0.629001
175 1 0.587689 0.591352 0.630935
177 1 0.567125 0.580288 0.622936
169 1 0.562369 0.579488 0.636314
198 2 0.569321 0.558858 0.653319
157 1 0.558008 0.597138 0.665402
170 1 0.559872 0.559346 0.658162
159 1 0.564217 0.603119 0.677144
168 1 0.54191 0.573424 0.668283
161 1 0.570449 0.584672 0.646716
156 1 0.564956 0.58393 0.661485
158 1 0.576017 0.583418 0.672086
160 1 0.576142 0.594905 0.680555
162 1 0.555119 0.571497 0.663614
164 1 0.584794 0.572669 0.674659
167 1 0.582734 0.59116 0.64418
172 1 0.593912 0.574423 0.68531
192 2 0.584076 0.56429 0.668183
195 2 0.58822 0.59521 0.652713
200 2 0.600528 0.566408 0.687582
94 1 0.587183 0.542519 0.652895
88 1 0.598524 0.550859 0.654873
104 1 0.610531 0.603717 0.661848
86 1 0.603616 0.559736 0.644906
89 1 0.607576 0.551969 0.666627
95 1 0.607371 0.545954 0.679217
165 1 0.557867 0.613714 0.684121
49 1 0.560296 0.615154 0.626495
64 2 0.569168 0.61774 0.620312
132 2 0.608375 0.60886 0.670939
108 1 0.612621 0.611234 0.65028
124 2 0.610343 0.584148 0.67174
96 1 0.611774 0.589794 0.662427
134 2 0.617458 0.609863 0.629006
106 1 0.615714 0.604735 0.638441
138 2 0.667443 0.572061 0.608964
90 1 0.614375 0.583411 0.650187
111 1 0.670758 0.561895 0.611897
103 1 0.617954 0.548436 0.688531
87 1 0.618064 0.561581 0.663188
98 1 0.615477 0.590562 0.638015
126 2 0.615919 0.584893 0.62858
101 1 0.628317 0.557455 0.685094
85 1 0.616167 0.567761 0.649381
105 1 0.637899 0.549372 0.623428
139 2 0.674942 0.563032 0.621657
109 1 0.648921 0.558092 0.622076
125 2 0.618773 0.54611 0.633457
91 1 0.627854 0.564258 0.639798
97 1 0.627279 0.552593 0.632267
99 1 0.639406 0.572438 0.63921
107 1 0.649989 0.570052 0.62988
121 2 0.635995 0.571343 0.670477
127 2 0.640149 0.580979 0.645403
135 2 0.659124 0.576532 0.629876
93 1 0.628511 0.564156 0.672435
129 2 0.636215 0.558901 0.692153
199 2 0.530675 0.617032 0.663439
118 1 0.52991 0.638005 0.615588
144 2 0.527329 0.628598 0.635819
116 1 0.531787 0.636726 0.630076
83 3 0.567864 0.640386 0.618743
41 3 0.560006 0.621638 0.640181
201 2 0.540198 0.626656 0.684038
68 2 0.533038 0.645337 0.636399
47 1 0.547981 0.618197 0.618602
45 3 0.583747 0.617613 0.641187
173 1 0.54598 0.619063 0.678721
69 2 0.554108 0.662985 0.613948
141 2 0.606919 0.651854 0.629828
43 3 0.549325 0.656416 0.619713
114 1 0.555534 0.643505 0.620022
137 2 0.607306 0.627001 0.631388
53 1 0.572872 0.622399 0.646127
76 2 0.593545 0.622425 0.662925
56 1 0.573729 0.628234 0.660183
59 1 0.584875 0.626982 0.66723
71 2 0.564506 0.632464 0.664203
75 2 0.58643 0.630484 0.67705
51 1 0.544237 0.632906 0.620552
67 2 0.585139 0.642121 0.636686
110 1 0.611967 0.633094 0.639638
81 3 0.591221 0.646182 0.641962
112 1 0.605529 0.647126 0.6397
140 2 0.610339 0.653513 0.647394
79 3 0.611255 0.625525 0.652515
136 2 0.622311 0.634059 0.636269
166 1 0.58645 0.597454 0.690193
193 2 0.562942 0.617909 0.692502
174 1 0.594914 0.58678 0.692792
194 2 0.587016 0.606886 0.695707
202 2 0.602862 0.587633 0.700511
131 2 0.618137 0.543567 0.698069
