ITEM: TIMESTEP
890000
ITEM: NUMBER OF ATOMS
220
ITEM: BOX BOUNDS ff ff ff
-5.0000000000000000e+01 5.0000000000000000e+01
-5.0000000000000000e+01 5.0000000000000000e+01
-5.0000000000000000e+01 5.0000000000000000e+01
ITEM: ATOMS id type xs ys zs
155 3 0.57152 0.503533 0.604779
214 2 0.550343 0.513866 0.611107
24 2 0.601282 0.530156 0.59206
10 1 0.601743 0.539972 0.597406
23 2 0.57519 0.540851 0.587274
5 3 0.551891 0.545612 0.589759
2 3 0.597386 0.537383 0.611203
25 2 0.612106 0.543066 0.598051
22 2 0.577137 0.548262 0.601516
219 2 0.592406 0.48992 0.606254
14 1 0.608248 0.530192 0.617697
142 2 0.675903 0.547989 0.599793
6 3 0.620503 0.528887 0.613747
84 3 0.652958 0.539024 0.578269
208 2 0.530585 0.588377 0.57411
205 2 0.517819 0.58798 0.593972
177 1 0.526605 0.59139 0.599826
34 2 0.527271 0.573551 0.583713
181 1 0.529929 0.599184 0.571281
207 2 0.535721 0.599902 0.561946
35 2 0.531773 0.556568 0.585449
19 1 0.535292 0.566493 0.584913
183 1 0.514816 0.601746 0.570618
211 2 0.509599 0.599281 0.560872
212 2 0.508637 0.597181 0.57818
169 1 0.527066 0.585393 0.612773
197 2 0.519098 0.578452 0.615623
9 1 0.579185 0.549713 0.591165
4 3 0.608773 0.555355 0.569135
29 2 0.598496 0.537416 0.572308
12 1 0.597209 0.547813 0.57311
8 1 0.594218 0.551061 0.588202
28 2 0.589457 0.550429 0.566143
150 3 0.539097 0.605401 0.581801
179 1 0.537085 0.599009 0.59446
175 1 0.547835 0.601171 0.603452
203 2 0.555631 0.607944 0.598947
13 1 0.556962 0.557306 0.58731
16 1 0.547873 0.570087 0.584987
31 2 0.551931 0.580335 0.583655
1 3 0.570667 0.560916 0.585777
128 2 0.576455 0.582587 0.61071
26 2 0.594519 0.565351 0.60347
11 1 0.598354 0.565548 0.593362
27 2 0.593062 0.5731 0.587335
7 3 0.611549 0.585084 0.575001
3 3 0.612651 0.569168 0.594487
15 1 0.616615 0.580473 0.585871
78 2 0.601511 0.605719 0.608522
30 2 0.608059 0.564022 0.565501
167 1 0.548523 0.596329 0.616576
60 1 0.603137 0.61608 0.607919
77 2 0.612703 0.618441 0.602871
138 2 0.650596 0.550606 0.596374
148 2 0.648558 0.535958 0.552704
115 1 0.663992 0.543568 0.5732
119 1 0.659456 0.536739 0.549523
82 3 0.673298 0.552002 0.579647
139 2 0.65302 0.568425 0.594178
149 2 0.661941 0.533988 0.539467
117 1 0.668239 0.540264 0.558543
18 1 0.629032 0.586045 0.592578
39 2 0.630797 0.602604 0.579784
21 1 0.634114 0.5973 0.588592
33 2 0.63266 0.580407 0.601435
38 2 0.642657 0.602248 0.593042
145 2 0.677951 0.540911 0.554674
113 1 0.671023 0.556005 0.594247
111 1 0.656887 0.558887 0.598366
143 2 0.677339 0.565359 0.595548
133 2 0.630788 0.55775 0.602327
105 1 0.632462 0.559626 0.613265
218 2 0.490953 0.652036 0.589602
152 3 0.51389 0.61661 0.571864
154 3 0.501366 0.613345 0.591842
185 1 0.505227 0.621234 0.582266
69 2 0.525645 0.626363 0.591505
43 3 0.527509 0.627479 0.601527
217 2 0.492915 0.636403 0.59962
114 1 0.540511 0.630837 0.607233
187 1 0.501295 0.635664 0.580769
189 1 0.495014 0.641913 0.590723
215 2 0.503215 0.641065 0.571543
72 2 0.596961 0.635371 0.61336
57 1 0.595096 0.624832 0.614073
83 3 0.552058 0.633286 0.602583
61 2 0.562272 0.647584 0.620742
210 2 0.531157 0.520822 0.62238
190 1 0.591301 0.487984 0.616597
186 1 0.572634 0.50456 0.617722
209 2 0.538876 0.507037 0.631342
184 1 0.552656 0.517925 0.620525
220 2 0.598968 0.482246 0.621239
188 1 0.582649 0.495221 0.624026
216 2 0.582826 0.494036 0.634464
153 3 0.564838 0.511974 0.626896
213 2 0.55624 0.527846 0.618063
182 1 0.539617 0.51778 0.628476
151 3 0.538899 0.525973 0.641306
17 1 0.604046 0.526157 0.631211
32 2 0.593539 0.528123 0.635276
131 2 0.588431 0.522008 0.670817
123 2 0.572635 0.535304 0.655352
95 1 0.583719 0.537159 0.655827
122 2 0.567745 0.544415 0.628556
20 1 0.612754 0.519504 0.638571
36 2 0.610957 0.51642 0.648809
37 2 0.622622 0.51823 0.635234
206 2 0.537063 0.538565 0.618142
198 2 0.535173 0.563259 0.615732
199 2 0.496074 0.597557 0.65346
171 1 0.506975 0.598449 0.653067
163 1 0.514645 0.591726 0.64277
191 2 0.509552 0.58792 0.633819
157 1 0.528507 0.591119 0.644995
173 1 0.512478 0.606856 0.662879
165 1 0.526567 0.607835 0.663378
159 1 0.534443 0.599502 0.654832
193 2 0.531375 0.613446 0.671083
201 2 0.50676 0.612823 0.669227
170 1 0.536742 0.559224 0.625779
146 2 0.523292 0.61247 0.620925
46 3 0.580392 0.606935 0.618882
65 2 0.557389 0.61773 0.622475
156 1 0.539106 0.583218 0.636001
100 1 0.579843 0.574573 0.616765
130 2 0.563122 0.563557 0.611837
120 2 0.598696 0.584464 0.623429
180 1 0.537885 0.540292 0.639831
161 1 0.538244 0.587054 0.620974
178 1 0.53716 0.545172 0.626585
162 1 0.53729 0.567307 0.637603
102 1 0.571821 0.563011 0.61827
92 1 0.591633 0.575578 0.624769
204 2 0.539009 0.542996 0.661004
160 1 0.548962 0.598428 0.653018
196 2 0.53905 0.568864 0.658887
158 1 0.551594 0.588668 0.643032
166 1 0.558763 0.604254 0.661664
195 2 0.557404 0.598383 0.622215
94 1 0.57447 0.55286 0.627674
125 2 0.610973 0.556113 0.616559
176 1 0.538505 0.547688 0.651591
168 1 0.538487 0.561788 0.650438
103 1 0.592406 0.530465 0.66561
101 1 0.605155 0.535646 0.668557
86 1 0.594561 0.565282 0.633551
88 1 0.584969 0.555056 0.636739
89 1 0.590167 0.547514 0.648841
200 2 0.584978 0.585644 0.648673
164 1 0.565197 0.584084 0.642948
172 1 0.575439 0.59029 0.650044
192 2 0.569092 0.577416 0.635786
174 1 0.572228 0.60035 0.660114
87 1 0.603329 0.552305 0.651711
96 1 0.60426 0.578214 0.664615
85 1 0.607493 0.564067 0.643008
90 1 0.608303 0.577075 0.650648
202 2 0.58022 0.604329 0.665959
98 1 0.613295 0.589298 0.64451
106 1 0.613809 0.601458 0.652015
124 2 0.60155 0.569948 0.671251
104 1 0.603024 0.590439 0.670753
132 2 0.597967 0.590711 0.679866
126 2 0.618007 0.588935 0.634219
108 1 0.606603 0.602848 0.664164
134 2 0.61878 0.610419 0.649081
80 3 0.657088 0.559178 0.613465
129 2 0.610316 0.531891 0.677754
93 1 0.611478 0.545559 0.661057
97 1 0.620566 0.558651 0.621411
121 2 0.621315 0.549402 0.663517
91 1 0.620964 0.562226 0.634555
109 1 0.644538 0.561706 0.619441
107 1 0.644516 0.565199 0.633376
135 2 0.653665 0.566165 0.63879
127 2 0.634092 0.567953 0.652567
99 1 0.633235 0.56467 0.641496
147 2 0.531145 0.614351 0.636832
118 1 0.528847 0.619028 0.627899
144 2 0.521408 0.637474 0.637773
116 1 0.52318 0.632768 0.62801
68 2 0.51572 0.635259 0.620927
70 2 0.529211 0.674674 0.60972
55 1 0.539607 0.678466 0.610514
51 1 0.537984 0.629815 0.622799
63 2 0.53579 0.637717 0.648484
64 2 0.547319 0.625629 0.651111
45 3 0.532787 0.656847 0.660653
76 2 0.537939 0.674906 0.675199
54 1 0.582635 0.619521 0.620769
194 2 0.556691 0.61273 0.668226
66 2 0.561602 0.617805 0.638763
44 3 0.561996 0.66963 0.611443
141 2 0.581492 0.624291 0.652573
52 1 0.549548 0.667778 0.614212
112 1 0.587931 0.632247 0.65708
140 2 0.588359 0.638544 0.648901
40 3 0.543704 0.657252 0.622003
67 2 0.575873 0.633859 0.673932
81 3 0.581711 0.639376 0.668136
62 2 0.557119 0.654501 0.637447
48 1 0.554115 0.648602 0.628073
42 3 0.574819 0.629907 0.626101
50 1 0.560665 0.624656 0.630362
71 2 0.565862 0.665207 0.668739
49 1 0.546397 0.635126 0.646477
41 3 0.553984 0.645222 0.65622
53 1 0.545302 0.654502 0.662208
47 1 0.550001 0.634702 0.632398
56 1 0.554665 0.665686 0.66829
59 1 0.548387 0.674376 0.675012
110 1 0.601976 0.62701 0.661672
79 3 0.601749 0.614574 0.670635
75 2 0.553832 0.682332 0.680171
136 2 0.608376 0.634798 0.665695
137 2 0.607661 0.625309 0.652549
73 2 0.535822 0.698156 0.604329
58 1 0.542984 0.690941 0.606762
74 2 0.553621 0.694946 0.606741
