ITEM: TIMESTEP
410000
ITEM: NUMBER OF ATOMS
220
ITEM: BOX BOUNDS ff ff ff
-5.0000000000000000e+01 5.0000000000000000e+01
-5.0000000000000000e+01 5.0000000000000000e+01
-5.0000000000000000e+01 5.0000000000000000e+01
ITEM: ATOMS id type xs ys zs
38 2 0.557521 0.61611 0.527646
21 1 0.549292 0.611774 0.532769
39 2 0.539871 0.617854 0.533016
5 3 0.527458 0.530293 0.579908
13 1 0.535944 0.535699 0.57185
155 3 0.53251 0.525445 0.610457
34 2 0.55223 0.507212 0.560713
19 1 0.544726 0.513826 0.564745
35 2 0.53702 0.509293 0.570464
31 2 0.553782 0.531342 0.558898
16 1 0.545469 0.527051 0.564254
25 2 0.513338 0.57334 0.592169
10 1 0.51466 0.578622 0.58271
24 2 0.505828 0.576114 0.576618
6 3 0.502628 0.591311 0.606541
2 3 0.515064 0.593184 0.58537
14 1 0.508798 0.597696 0.597325
3 3 0.540721 0.585041 0.556792
22 2 0.518219 0.554199 0.572309
23 2 0.527412 0.555095 0.586822
8 1 0.528233 0.573758 0.575928
11 1 0.52771 0.578601 0.561094
9 1 0.527981 0.558127 0.576305
26 2 0.520092 0.586113 0.558556
27 2 0.525756 0.570005 0.554462
17 1 0.509445 0.613044 0.59907
1 3 0.538185 0.549922 0.569594
7 3 0.528236 0.604421 0.549059
65 2 0.527387 0.609967 0.617869
33 2 0.559644 0.59542 0.540288
30 2 0.539438 0.583449 0.601542
28 2 0.544577 0.587849 0.580911
219 2 0.545232 0.537973 0.592988
18 1 0.550222 0.60039 0.539776
15 1 0.538624 0.596822 0.54918
12 1 0.54197 0.577506 0.582733
4 3 0.540762 0.574781 0.596981
190 1 0.552089 0.543055 0.59985
220 2 0.559837 0.549086 0.594843
29 2 0.549676 0.570865 0.578307
183 1 0.574891 0.584032 0.57996
207 2 0.578126 0.569264 0.595451
211 2 0.585211 0.586169 0.577069
212 2 0.571817 0.575927 0.573014
208 2 0.56303 0.576817 0.597551
181 1 0.573041 0.578737 0.594336
150 3 0.579154 0.587605 0.604859
61 2 0.556385 0.598513 0.607663
152 3 0.568084 0.596955 0.576968
154 3 0.584397 0.599299 0.558809
185 1 0.57386 0.603204 0.565298
205 2 0.560274 0.569616 0.61398
188 1 0.551144 0.541338 0.613127
187 1 0.567026 0.616673 0.563163
48 1 0.553269 0.609113 0.606599
40 3 0.542459 0.610153 0.596549
215 2 0.557303 0.618651 0.567227
62 2 0.562163 0.615493 0.604606
128 2 0.582963 0.558062 0.611433
120 2 0.60207 0.572859 0.613897
80 3 0.664115 0.562536 0.602836
138 2 0.678625 0.572568 0.592076
111 1 0.673847 0.573545 0.602106
139 2 0.668976 0.582856 0.60195
133 2 0.646041 0.544599 0.610581
109 1 0.653729 0.565206 0.612903
113 1 0.684801 0.573558 0.613044
105 1 0.644562 0.554276 0.614865
145 2 0.710914 0.543374 0.612936
82 3 0.695043 0.563091 0.611172
70 2 0.528024 0.616129 0.573892
32 2 0.514654 0.61999 0.592356
55 1 0.535957 0.623019 0.57535
73 2 0.529599 0.635909 0.559963
147 2 0.525023 0.627393 0.610954
118 1 0.532637 0.634097 0.614908
20 1 0.503146 0.619018 0.609043
36 2 0.50379 0.6296 0.610642
58 1 0.537397 0.633858 0.56721
74 2 0.545297 0.64136 0.568761
146 2 0.533634 0.642773 0.608022
217 2 0.583626 0.623654 0.551874
218 2 0.570067 0.63525 0.55374
189 1 0.573806 0.625472 0.555676
52 1 0.545533 0.620589 0.587146
44 3 0.555116 0.629304 0.587085
69 2 0.564005 0.656092 0.623897
43 3 0.555958 0.650443 0.621521
213 2 0.520585 0.5271 0.636664
210 2 0.526112 0.513164 0.657919
151 3 0.530241 0.532727 0.662167
184 1 0.529878 0.52263 0.638763
214 2 0.529664 0.513193 0.634014
182 1 0.53248 0.520734 0.653601
186 1 0.540829 0.531431 0.618241
153 3 0.541696 0.530304 0.63261
209 2 0.542836 0.517342 0.654885
206 2 0.558202 0.53284 0.652343
122 2 0.590126 0.537818 0.64947
130 2 0.575562 0.541851 0.628233
37 2 0.497505 0.613101 0.615883
57 1 0.53004 0.568047 0.629508
60 1 0.526 0.560145 0.639494
54 1 0.529189 0.58348 0.63138
78 2 0.521601 0.564408 0.64873
46 3 0.522541 0.587804 0.64148
77 2 0.526563 0.54942 0.638439
204 2 0.526196 0.55519 0.672672
72 2 0.533199 0.564432 0.619588
199 2 0.530678 0.610948 0.662846
66 2 0.53263 0.607722 0.634075
50 1 0.535545 0.605753 0.623877
42 3 0.536389 0.590986 0.62167
176 1 0.535995 0.553921 0.668118
171 1 0.540461 0.607955 0.666677
123 2 0.60661 0.53991 0.66988
191 2 0.54042 0.59154 0.652549
179 1 0.575599 0.584393 0.618311
216 2 0.558635 0.546022 0.619751
100 1 0.588672 0.556949 0.620422
92 1 0.599848 0.565548 0.62158
102 1 0.584258 0.547493 0.630033
180 1 0.540883 0.54227 0.661555
196 2 0.539662 0.573784 0.672959
178 1 0.554188 0.541536 0.656752
63 2 0.557729 0.598492 0.63307
163 1 0.545549 0.596244 0.660952
197 2 0.553005 0.568237 0.638131
203 2 0.590964 0.597257 0.625052
175 1 0.58332 0.590751 0.627926
177 1 0.565459 0.575016 0.621775
169 1 0.561496 0.573832 0.635281
198 2 0.57222 0.553412 0.652159
157 1 0.557806 0.590897 0.665323
170 1 0.562296 0.553559 0.656991
159 1 0.564923 0.598077 0.675568
168 1 0.544107 0.565035 0.668678
161 1 0.5691 0.58003 0.645364
156 1 0.565396 0.578444 0.660319
158 1 0.578755 0.580048 0.668659
160 1 0.57859 0.591766 0.67685
162 1 0.55709 0.565447 0.662622
164 1 0.589976 0.572105 0.667421
167 1 0.580172 0.588416 0.641468
172 1 0.601301 0.576627 0.675101
192 2 0.59108 0.562935 0.661953
195 2 0.586524 0.592983 0.648985
94 1 0.592388 0.54543 0.641441
88 1 0.603537 0.553938 0.643367
86 1 0.606646 0.563929 0.633587
165 1 0.559237 0.608849 0.682701
166 1 0.590068 0.596595 0.683434
174 1 0.601627 0.58867 0.68237
132 2 0.611865 0.612781 0.660285
49 1 0.558574 0.609263 0.630658
104 1 0.612715 0.607465 0.650418
200 2 0.610763 0.57162 0.674904
173 1 0.54721 0.614157 0.67781
134 2 0.612277 0.614098 0.616907
106 1 0.613435 0.608337 0.625932
124 2 0.615077 0.587732 0.659534
96 1 0.613988 0.593333 0.650319
108 1 0.612032 0.614955 0.638369
89 1 0.612845 0.554782 0.65489
194 2 0.590055 0.60601 0.689072
98 1 0.615325 0.594389 0.625766
90 1 0.616281 0.587141 0.637785
64 2 0.568963 0.611237 0.62674
47 1 0.548193 0.613062 0.620432
202 2 0.610705 0.592272 0.687429
143 2 0.688897 0.583357 0.613742
95 1 0.613689 0.547281 0.667041
126 2 0.61595 0.58893 0.616468
135 2 0.660852 0.585361 0.619237
103 1 0.624035 0.551068 0.675771
87 1 0.622371 0.564894 0.651231
101 1 0.634108 0.56026 0.671829
125 2 0.625668 0.548801 0.624703
85 1 0.619462 0.571948 0.637884
91 1 0.631675 0.569725 0.628439
97 1 0.633118 0.55666 0.622709
99 1 0.641574 0.579644 0.627889
107 1 0.652707 0.577917 0.61951
121 2 0.641348 0.574045 0.657092
127 2 0.64074 0.58849 0.633945
93 1 0.633351 0.567483 0.659741
129 2 0.642474 0.561847 0.678522
142 2 0.680579 0.571287 0.622977
131 2 0.624122 0.54567 0.68522
117 1 0.712824 0.550503 0.621442
115 1 0.703206 0.562609 0.62284
149 2 0.729994 0.54165 0.629066
119 1 0.722718 0.548875 0.630388
148 2 0.723782 0.555733 0.638684
84 3 0.704832 0.571032 0.632397
144 2 0.528722 0.628301 0.636367
116 1 0.535014 0.63461 0.629622
83 3 0.570536 0.631893 0.615683
193 2 0.564791 0.613526 0.690763
201 2 0.54295 0.622808 0.682191
45 3 0.581381 0.615265 0.647128
68 2 0.537071 0.644456 0.6339
141 2 0.598913 0.654837 0.619598
41 3 0.557396 0.616939 0.643464
114 1 0.559074 0.637027 0.617765
51 1 0.546272 0.62819 0.620412
137 2 0.600509 0.629083 0.621818
53 1 0.569603 0.619332 0.650147
76 2 0.587902 0.62717 0.66665
56 1 0.568117 0.629406 0.661474
59 1 0.578965 0.632785 0.668371
71 2 0.558413 0.633879 0.663386
75 2 0.578907 0.640008 0.676133
67 2 0.581528 0.644757 0.631345
110 1 0.606779 0.635695 0.627279
81 3 0.588158 0.649418 0.635984
112 1 0.601377 0.649901 0.629203
140 2 0.608621 0.656294 0.634641
79 3 0.610843 0.62904 0.640108
136 2 0.616077 0.636583 0.620938
