ITEM: TIMESTEP
1320000
ITEM: NUMBER OF ATOMS
220
ITEM: BOX BOUNDS ff ff ff
-5.0000000000000000e+01 5.0000000000000000e+01
-5.0000000000000000e+01 5.0000000000000000e+01
-5.0000000000000000e+01 5.0000000000000000e+01
ITEM: ATOMS id type xs ys zs
78 2 0.50443 0.551169 0.535097
77 2 0.496958 0.567823 0.530132
60 1 0.503977 0.561823 0.535854
39 2 0.537497 0.629847 0.506117
38 2 0.527738 0.614816 0.510619
21 1 0.531996 0.623884 0.513257
18 1 0.532176 0.626998 0.52617
33 2 0.526379 0.621167 0.533057
7 3 0.546229 0.648234 0.525454
15 1 0.540522 0.638141 0.531285
144 2 0.523992 0.539554 0.580806
46 3 0.527526 0.551019 0.548835
68 2 0.513571 0.534513 0.594721
71 2 0.554094 0.524951 0.618787
65 2 0.534819 0.55311 0.574118
53 1 0.549912 0.538861 0.600074
45 3 0.554058 0.539308 0.587794
41 3 0.542593 0.548619 0.60757
56 1 0.555587 0.526573 0.608252
59 1 0.564343 0.519821 0.601219
76 2 0.56646 0.521802 0.590722
75 2 0.570549 0.51188 0.606118
116 1 0.517159 0.543044 0.588271
54 1 0.522904 0.561985 0.554176
57 1 0.511913 0.567619 0.544813
72 2 0.510424 0.576912 0.544019
147 2 0.50517 0.55924 0.576489
50 1 0.534348 0.56377 0.57657
42 3 0.525598 0.569638 0.565282
118 1 0.506787 0.554531 0.586008
51 1 0.519606 0.556542 0.595462
146 2 0.496415 0.552161 0.590001
61 2 0.515469 0.580194 0.587935
44 3 0.533035 0.609928 0.597352
74 2 0.529046 0.626151 0.619823
58 1 0.523892 0.617544 0.624178
47 1 0.531099 0.565563 0.590974
48 1 0.526853 0.579861 0.591807
70 2 0.520935 0.59797 0.625682
55 1 0.524598 0.605083 0.619202
52 1 0.529963 0.600874 0.605719
114 1 0.514337 0.555718 0.61058
83 3 0.50967 0.544337 0.614499
66 2 0.543691 0.567708 0.573288
49 1 0.542874 0.561934 0.600048
63 2 0.551094 0.563197 0.594253
40 3 0.529837 0.586056 0.605091
62 2 0.53177 0.586187 0.584736
128 2 0.576565 0.55382 0.602065
64 2 0.54195 0.569685 0.608433
102 1 0.572654 0.575044 0.599681
130 2 0.571564 0.575757 0.589327
163 1 0.615121 0.589414 0.613069
199 2 0.607768 0.589731 0.592758
171 1 0.605312 0.592628 0.60337
191 2 0.624313 0.584601 0.60956
122 2 0.567871 0.596279 0.603505
197 2 0.643809 0.580599 0.625775
205 2 0.658958 0.594596 0.611821
177 1 0.653292 0.598886 0.620024
5 3 0.505019 0.657644 0.560269
27 2 0.535233 0.65602 0.549548
22 2 0.530275 0.640445 0.580287
23 2 0.522714 0.64383 0.564691
1 3 0.520442 0.657875 0.579756
28 2 0.554931 0.630025 0.565819
9 1 0.52948 0.647603 0.572657
13 1 0.507987 0.659199 0.572907
73 2 0.518153 0.620117 0.63256
16 1 0.496284 0.665052 0.581254
31 2 0.497364 0.668152 0.591151
26 2 0.552782 0.651465 0.547646
3 3 0.539425 0.635488 0.545807
30 2 0.57063 0.651804 0.574905
4 3 0.56823 0.6428 0.573763
29 2 0.550614 0.636029 0.582532
12 1 0.553647 0.638645 0.572475
8 1 0.543606 0.648527 0.567757
11 1 0.543 0.648286 0.552886
2 3 0.560691 0.668579 0.568134
14 1 0.56526 0.67576 0.579024
6 3 0.558906 0.678406 0.589957
10 1 0.547338 0.662499 0.572408
25 2 0.544909 0.66108 0.583253
24 2 0.540269 0.669971 0.569915
32 2 0.586389 0.675511 0.571606
17 1 0.580838 0.679592 0.580144
20 1 0.587383 0.685439 0.589346
37 2 0.582992 0.689085 0.598239
173 1 0.594459 0.600824 0.606861
201 2 0.587773 0.603869 0.599309
36 2 0.598485 0.684917 0.588144
150 3 0.663109 0.620916 0.614176
207 2 0.670923 0.640108 0.613236
115 1 0.55135 0.507695 0.666631
82 3 0.547422 0.508956 0.652827
113 1 0.541668 0.522563 0.650251
117 1 0.550696 0.492942 0.666165
145 2 0.546304 0.488263 0.657898
142 2 0.543095 0.526833 0.659651
148 2 0.556131 0.494092 0.684658
119 1 0.554229 0.487341 0.676921
149 2 0.554139 0.47607 0.679491
138 2 0.520613 0.517499 0.650403
111 1 0.527323 0.524274 0.644788
80 3 0.521633 0.53749 0.648259
139 2 0.527076 0.5229 0.633723
151 3 0.63559 0.533448 0.644366
84 3 0.553842 0.51561 0.676637
143 2 0.549215 0.527673 0.643889
135 2 0.535382 0.550699 0.668978
219 2 0.585125 0.514043 0.690594
155 3 0.610344 0.513908 0.685215
214 2 0.629865 0.51134 0.656596
186 1 0.607124 0.521793 0.674923
209 2 0.649146 0.52582 0.658466
213 2 0.631179 0.516661 0.674445
182 1 0.638977 0.52995 0.658299
184 1 0.628625 0.519086 0.663595
210 2 0.638118 0.538222 0.665381
43 3 0.518359 0.567261 0.618093
109 1 0.53094 0.548498 0.64753
133 2 0.529343 0.549322 0.627317
125 2 0.55016 0.564265 0.623766
69 2 0.518682 0.576606 0.613224
105 1 0.535591 0.553087 0.634719
97 1 0.546553 0.561918 0.633618
129 2 0.550147 0.615625 0.661924
206 2 0.613024 0.54557 0.635835
178 1 0.620658 0.551844 0.639143
170 1 0.617615 0.565534 0.636247
198 2 0.609346 0.568622 0.630345
190 1 0.583723 0.522187 0.683421
180 1 0.633152 0.548035 0.644325
216 2 0.589772 0.535358 0.66976
188 1 0.593441 0.527568 0.675837
153 3 0.614503 0.523773 0.663174
107 1 0.538557 0.552823 0.658926
100 1 0.574681 0.562997 0.606586
120 2 0.57337 0.551733 0.625869
92 1 0.574244 0.561473 0.621116
86 1 0.570969 0.573301 0.62825
87 1 0.559968 0.588464 0.644231
126 2 0.587097 0.554684 0.642555
91 1 0.55305 0.566057 0.645254
85 1 0.566209 0.574185 0.642679
90 1 0.575907 0.569435 0.653289
96 1 0.574824 0.576424 0.665813
124 2 0.568904 0.584803 0.668251
98 1 0.586344 0.560327 0.651437
104 1 0.583428 0.573282 0.675638
106 1 0.595057 0.557019 0.662154
99 1 0.548999 0.561534 0.658175
93 1 0.553797 0.595922 0.654657
127 2 0.553389 0.56592 0.666971
88 1 0.566461 0.584878 0.621478
89 1 0.560278 0.594171 0.63154
134 2 0.603437 0.54961 0.660346
95 1 0.557217 0.608161 0.629547
121 2 0.552359 0.592322 0.664634
101 1 0.553105 0.609903 0.653673
94 1 0.567694 0.586085 0.607413
108 1 0.592715 0.562846 0.674274
158 1 0.612684 0.595314 0.650467
160 1 0.601103 0.601807 0.645497
79 3 0.601792 0.560076 0.685133
110 1 0.596585 0.562761 0.698402
159 1 0.601374 0.599063 0.630694
157 1 0.613196 0.592721 0.626262
220 2 0.574342 0.526779 0.682528
169 1 0.644204 0.591427 0.627188
179 1 0.653389 0.613416 0.6214
176 1 0.641811 0.557722 0.648989
162 1 0.625944 0.57519 0.641676
172 1 0.607656 0.599037 0.673063
156 1 0.622145 0.590671 0.639232
204 2 0.651623 0.555568 0.654257
168 1 0.638088 0.571726 0.647377
196 2 0.645468 0.578805 0.651034
192 2 0.626413 0.590668 0.666654
200 2 0.609159 0.598138 0.683711
164 1 0.616757 0.594176 0.663818
218 2 0.6917 0.582185 0.662908
141 2 0.598481 0.563614 0.718243
140 2 0.614577 0.567011 0.711902
215 2 0.677552 0.601331 0.658834
161 1 0.634817 0.598353 0.634674
187 1 0.686409 0.599871 0.652881
189 1 0.693984 0.589109 0.655034
185 1 0.691383 0.608122 0.641323
112 1 0.605406 0.560546 0.710657
195 2 0.627628 0.61567 0.645163
167 1 0.635416 0.61224 0.637865
67 2 0.613971 0.539794 0.707962
217 2 0.703346 0.586783 0.650687
154 3 0.703671 0.60732 0.638128
35 2 0.483464 0.663695 0.564222
131 2 0.5523 0.625845 0.639183
19 1 0.48504 0.667766 0.57484
34 2 0.475918 0.672097 0.578876
174 1 0.595456 0.604581 0.668622
202 2 0.587861 0.607241 0.674887
103 1 0.554342 0.616089 0.640859
165 1 0.591912 0.603649 0.620868
193 2 0.582254 0.606684 0.62364
123 2 0.55907 0.612346 0.619791
194 2 0.581151 0.609478 0.65192
166 1 0.591834 0.606485 0.655186
211 2 0.686203 0.621978 0.616322
152 3 0.680323 0.616441 0.636106
183 1 0.682414 0.626341 0.625072
212 2 0.68932 0.63319 0.627888
175 1 0.645707 0.620133 0.631344
203 2 0.646653 0.630034 0.633588
208 2 0.663658 0.637173 0.630093
181 1 0.669313 0.632843 0.621273
132 2 0.581566 0.577459 0.685929
137 2 0.58698 0.557389 0.700115
136 2 0.593053 0.573259 0.698718
81 3 0.606934 0.546013 0.708891
