ITEM: TIMESTEP
1275000
ITEM: NUMBER OF ATOMS
220
ITEM: BOX BOUNDS ff ff ff
-5.0000000000000000e+01 5.0000000000000000e+01
-5.0000000000000000e+01 5.0000000000000000e+01
-5.0000000000000000e+01 5.0000000000000000e+01
ITEM: ATOMS id type xs ys zs
37 2 0.524317 0.616562 0.537788
20 1 0.517871 0.622855 0.543939
34 2 0.590309 0.566449 0.535836
36 2 0.514765 0.631775 0.539309
147 2 0.540265 0.508086 0.605856
118 1 0.545706 0.512554 0.613936
75 2 0.497007 0.495273 0.582292
76 2 0.514761 0.489068 0.579339
59 1 0.508298 0.497012 0.580549
53 1 0.529123 0.509117 0.584419
56 1 0.513953 0.508487 0.583558
41 3 0.53288 0.522032 0.589759
71 2 0.507393 0.51691 0.584822
66 2 0.532229 0.547152 0.600627
64 2 0.553951 0.516309 0.588187
51 1 0.550453 0.528023 0.612255
116 1 0.560055 0.515079 0.6109
144 2 0.563994 0.512421 0.600895
45 3 0.535217 0.497584 0.583377
63 2 0.549202 0.530294 0.577705
49 1 0.547658 0.525923 0.58714
55 1 0.585143 0.547364 0.564506
70 2 0.576724 0.54887 0.558285
40 3 0.568384 0.542381 0.580453
47 1 0.550521 0.535074 0.59874
129 2 0.589353 0.533246 0.616392
77 2 0.5282 0.571611 0.546289
6 3 0.532508 0.602084 0.552484
14 1 0.525009 0.6081 0.561196
17 1 0.516726 0.619857 0.557125
78 2 0.516162 0.569257 0.561332
60 1 0.526154 0.568427 0.556555
72 2 0.546086 0.562418 0.559076
54 1 0.534307 0.560007 0.578559
57 1 0.536643 0.563666 0.563917
42 3 0.545292 0.552741 0.583714
46 3 0.523791 0.563127 0.585467
50 1 0.542741 0.547964 0.597949
65 2 0.54863 0.555843 0.603322
149 2 0.500306 0.594987 0.594022
2 3 0.525223 0.604028 0.575217
148 2 0.517386 0.587559 0.592683
119 1 0.50948 0.591268 0.598891
117 1 0.511649 0.593521 0.611414
58 1 0.598061 0.54583 0.559973
52 1 0.581596 0.547366 0.57914
74 2 0.607059 0.546509 0.566197
30 2 0.55512 0.570265 0.586315
4 3 0.560874 0.578088 0.58599
28 2 0.548928 0.587711 0.599334
29 2 0.564637 0.595737 0.595738
12 1 0.555316 0.591005 0.590976
25 2 0.530795 0.587929 0.585337
24 2 0.537453 0.587401 0.569281
31 2 0.570941 0.581656 0.536669
10 1 0.536098 0.593763 0.577963
44 3 0.591309 0.549748 0.587591
1 3 0.562381 0.591774 0.55943
23 2 0.55641 0.610485 0.562251
13 1 0.576411 0.588627 0.558559
5 3 0.585397 0.588968 0.567777
35 2 0.59455 0.571139 0.55335
16 1 0.57745 0.580561 0.545411
9 1 0.558646 0.60221 0.569101
48 1 0.564325 0.539126 0.595497
62 2 0.567011 0.548555 0.601666
8 1 0.54908 0.600677 0.580931
61 2 0.572033 0.531957 0.597309
19 1 0.588008 0.571634 0.545365
22 2 0.568284 0.606607 0.574238
194 2 0.604732 0.615706 0.586244
166 1 0.604973 0.622079 0.594985
193 2 0.60108 0.593999 0.591056
165 1 0.59529 0.591753 0.599861
160 1 0.599498 0.617057 0.606961
11 1 0.547214 0.614252 0.586634
132 2 0.622661 0.583703 0.619546
201 2 0.590936 0.571804 0.595053
173 1 0.589886 0.578859 0.602981
159 1 0.592763 0.603444 0.608263
73 2 0.600222 0.543815 0.549693
141 2 0.664333 0.596945 0.619561
32 2 0.511556 0.625932 0.563823
27 2 0.546983 0.620182 0.577148
3 3 0.556574 0.619392 0.59711
26 2 0.537681 0.613672 0.590756
172 1 0.606908 0.64273 0.60769
33 2 0.56405 0.639052 0.611097
38 2 0.582641 0.654385 0.609321
21 1 0.578956 0.649125 0.600669
18 1 0.569543 0.639176 0.602119
39 2 0.583872 0.650655 0.591432
7 3 0.573343 0.626869 0.581045
15 1 0.56678 0.628304 0.591769
202 2 0.615744 0.639553 0.588347
174 1 0.610133 0.635076 0.595732
200 2 0.6106 0.652601 0.608315
146 2 0.544913 0.509685 0.624118
68 2 0.567218 0.514822 0.619072
101 1 0.59515 0.533822 0.625196
103 1 0.597697 0.522444 0.633209
89 1 0.599925 0.535646 0.653129
131 2 0.595617 0.511654 0.629897
95 1 0.600028 0.522644 0.647165
88 1 0.601554 0.540701 0.666963
123 2 0.601757 0.513674 0.653254
94 1 0.602726 0.533698 0.679861
122 2 0.601478 0.522339 0.680548
43 3 0.552765 0.52953 0.638553
102 1 0.604233 0.541413 0.691406
84 3 0.533519 0.581961 0.611483
145 2 0.503388 0.598163 0.616039
113 1 0.537521 0.584282 0.637584
142 2 0.536058 0.573139 0.63585
115 1 0.524179 0.588352 0.617945
82 3 0.524539 0.590328 0.631948
69 2 0.557546 0.535366 0.644573
138 2 0.528466 0.589079 0.655463
114 1 0.548896 0.535391 0.625553
83 3 0.54532 0.547373 0.623113
93 1 0.597371 0.546846 0.631242
143 2 0.544673 0.586845 0.630178
125 2 0.57858 0.553467 0.6386
87 1 0.601571 0.547471 0.64444
121 2 0.59382 0.556043 0.626586
133 2 0.552315 0.561658 0.642668
111 1 0.538161 0.589546 0.651441
97 1 0.575759 0.562655 0.643645
199 2 0.577972 0.568382 0.618021
80 3 0.547401 0.582202 0.660435
139 2 0.540728 0.600136 0.649984
105 1 0.562159 0.566795 0.645829
109 1 0.56064 0.577774 0.65438
135 2 0.568422 0.590918 0.668324
107 1 0.57112 0.583722 0.661081
99 1 0.584377 0.580092 0.658078
127 2 0.592429 0.584871 0.663478
91 1 0.586701 0.568235 0.650443
85 1 0.599664 0.560651 0.652765
86 1 0.60222 0.555362 0.666832
90 1 0.61231 0.569909 0.648604
96 1 0.611739 0.576525 0.636003
124 2 0.602173 0.578065 0.63135
161 1 0.593869 0.613868 0.642012
120 2 0.601154 0.572871 0.678385
92 1 0.60251 0.562452 0.678635
157 1 0.585914 0.601736 0.620473
104 1 0.623227 0.580632 0.629536
179 1 0.606084 0.607532 0.666473
169 1 0.60696 0.60892 0.642139
197 2 0.611799 0.606108 0.632795
177 1 0.612049 0.603698 0.654404
175 1 0.593611 0.614005 0.667031
163 1 0.580356 0.588878 0.622738
191 2 0.575961 0.588273 0.632684
171 1 0.581953 0.577426 0.614517
156 1 0.586307 0.61495 0.628372
203 2 0.588439 0.616114 0.676311
167 1 0.587476 0.616212 0.654379
150 3 0.611618 0.605087 0.679274
100 1 0.602446 0.555904 0.690957
198 2 0.562752 0.605791 0.616673
140 2 0.674434 0.583085 0.617499
112 1 0.669268 0.589417 0.625746
181 1 0.620966 0.593489 0.680338
79 3 0.645865 0.579726 0.627057
207 2 0.616341 0.58398 0.677579
67 2 0.686195 0.589353 0.636469
110 1 0.659275 0.580149 0.633236
81 3 0.678769 0.594674 0.635338
136 2 0.659534 0.584489 0.644059
108 1 0.635289 0.577346 0.636259
205 2 0.621663 0.598733 0.654983
98 1 0.624124 0.566858 0.655777
106 1 0.6361 0.570888 0.648906
137 2 0.663014 0.570024 0.634821
126 2 0.624559 0.561649 0.665588
134 2 0.645723 0.56818 0.653105
210 2 0.520443 0.653195 0.63278
155 3 0.529731 0.675058 0.644025
214 2 0.521215 0.652744 0.655011
158 1 0.595235 0.623948 0.618788
164 1 0.599488 0.637187 0.61862
195 2 0.577348 0.620877 0.654509
206 2 0.539567 0.617728 0.619593
213 2 0.532366 0.638933 0.65493
192 2 0.597501 0.643646 0.626961
184 1 0.530519 0.64908 0.650888
209 2 0.5378 0.655536 0.631166
182 1 0.530361 0.649029 0.635424
151 3 0.532426 0.635682 0.62942
170 1 0.561204 0.614974 0.622651
162 1 0.571882 0.620333 0.629799
178 1 0.548268 0.620915 0.623986
196 2 0.577931 0.636038 0.642991
168 1 0.569942 0.632769 0.637358
180 1 0.546048 0.632205 0.630951
204 2 0.555546 0.645033 0.646078
176 1 0.557198 0.637612 0.638973
153 3 0.540794 0.658873 0.657185
186 1 0.539015 0.671626 0.65243
208 2 0.629493 0.595582 0.673653
219 2 0.540668 0.700383 0.649584
188 1 0.547809 0.682462 0.659413
220 2 0.554515 0.702302 0.661206
216 2 0.553598 0.677321 0.667237
190 1 0.547529 0.695405 0.656707
130 2 0.604236 0.53515 0.700507
185 1 0.643353 0.575784 0.705794
154 3 0.639712 0.579036 0.717851
187 1 0.652094 0.563206 0.705985
189 1 0.659953 0.56187 0.716983
217 2 0.660713 0.570037 0.724639
218 2 0.666628 0.553147 0.717945
128 2 0.60183 0.560824 0.70062
215 2 0.653091 0.55614 0.697596
152 3 0.637842 0.580566 0.693452
183 1 0.626618 0.591039 0.69437
212 2 0.619762 0.588178 0.702075
211 2 0.631347 0.59943 0.69881
