ITEM: TIMESTEP
1135000
ITEM: NUMBER OF ATOMS
220
ITEM: BOX BOUNDS ff ff ff
-5.0000000000000000e+01 5.0000000000000000e+01
-5.0000000000000000e+01 5.0000000000000000e+01
-5.0000000000000000e+01 5.0000000000000000e+01
ITEM: ATOMS id type xs ys zs
148 2 0.531958 0.573695 0.524731
149 2 0.515094 0.564931 0.522859
33 2 0.607891 0.644909 0.549005
38 2 0.596924 0.663409 0.542657
119 1 0.524561 0.566598 0.527814
117 1 0.526525 0.558873 0.538556
145 2 0.519336 0.551528 0.540955
159 1 0.53873 0.585499 0.591074
193 2 0.527024 0.581404 0.572259
165 1 0.5356 0.586386 0.576845
115 1 0.539733 0.560346 0.54575
82 3 0.540424 0.552828 0.557972
194 2 0.518879 0.564984 0.587364
166 1 0.521426 0.567066 0.597767
160 1 0.532653 0.576019 0.600833
107 1 0.546989 0.550356 0.612582
135 2 0.537976 0.555976 0.611355
174 1 0.514725 0.561974 0.60893
158 1 0.536869 0.578575 0.614162
201 2 0.540588 0.59734 0.558781
173 1 0.543251 0.595978 0.569794
84 3 0.546511 0.571025 0.543732
171 1 0.553782 0.603105 0.576557
80 3 0.547714 0.547171 0.589047
113 1 0.550231 0.559452 0.567555
143 2 0.544097 0.567241 0.571799
139 2 0.559492 0.540022 0.573374
109 1 0.554329 0.544649 0.601576
157 1 0.549957 0.592234 0.597003
142 2 0.55799 0.564722 0.561771
111 1 0.556688 0.550021 0.577868
163 1 0.558443 0.600978 0.590083
133 2 0.571336 0.534483 0.596844
191 2 0.565625 0.607834 0.594338
105 1 0.565722 0.537499 0.60526
138 2 0.566095 0.554685 0.582153
210 2 0.606716 0.566767 0.613759
198 2 0.564882 0.575106 0.597721
206 2 0.586034 0.562289 0.603922
178 1 0.580103 0.567091 0.611603
27 2 0.584255 0.614387 0.573644
11 1 0.594997 0.614134 0.574517
4 3 0.590805 0.601945 0.600815
30 2 0.598429 0.603248 0.607103
12 1 0.591513 0.593838 0.58878
29 2 0.58236 0.592204 0.583111
170 1 0.568338 0.573755 0.607817
8 1 0.599351 0.599845 0.576684
24 2 0.588523 0.584287 0.565932
28 2 0.594476 0.583764 0.591709
10 1 0.59694 0.591843 0.5649
6 3 0.594219 0.566333 0.558444
25 2 0.595264 0.598416 0.555783
199 2 0.559369 0.610001 0.571343
156 1 0.54855 0.589105 0.612241
22 2 0.619619 0.605209 0.572053
9 1 0.61357 0.601534 0.580649
23 2 0.618296 0.591848 0.585499
36 2 0.624823 0.541265 0.555211
2 3 0.609707 0.582697 0.563882
32 2 0.629071 0.566069 0.55892
14 1 0.606489 0.570067 0.558949
17 1 0.619595 0.561473 0.556751
37 2 0.606348 0.545991 0.55656
20 1 0.616716 0.548617 0.555803
21 1 0.591771 0.656041 0.548951
7 3 0.583743 0.638334 0.571718
72 2 0.579984 0.629912 0.616005
15 1 0.593691 0.635481 0.563779
26 2 0.596008 0.620801 0.583779
3 3 0.598935 0.622634 0.562573
18 1 0.598488 0.645998 0.553934
39 2 0.582345 0.65801 0.552811
77 2 0.579168 0.650588 0.602599
60 1 0.587923 0.648281 0.608
78 2 0.595953 0.655009 0.606095
31 2 0.613509 0.631016 0.605902
1 3 0.613574 0.611901 0.5915
16 1 0.623359 0.63079 0.602078
5 3 0.637819 0.616608 0.587572
13 1 0.626441 0.618178 0.593118
19 1 0.629724 0.641396 0.604651
35 2 0.639794 0.641957 0.600981
79 3 0.519795 0.499251 0.663241
112 1 0.517584 0.485363 0.683124
141 2 0.51496 0.478423 0.675474
140 2 0.510858 0.483764 0.691919
132 2 0.524623 0.503382 0.639505
104 1 0.532286 0.50894 0.645902
110 1 0.514651 0.499233 0.677389
137 2 0.503357 0.502313 0.67802
136 2 0.520396 0.505869 0.684073
108 1 0.530242 0.50882 0.659739
134 2 0.535625 0.517512 0.678635
106 1 0.538342 0.516795 0.668394
96 1 0.542985 0.516376 0.640795
124 2 0.54527 0.51572 0.630285
128 2 0.596194 0.502169 0.63694
81 3 0.530329 0.481683 0.689228
120 2 0.572409 0.510338 0.632715
126 2 0.557707 0.527304 0.669535
90 1 0.550673 0.524404 0.649183
98 1 0.54973 0.523315 0.662855
92 1 0.579253 0.51616 0.638552
100 1 0.592481 0.511501 0.640934
86 1 0.575217 0.528071 0.644438
102 1 0.600343 0.51876 0.650313
94 1 0.596613 0.530646 0.656952
130 2 0.610221 0.515442 0.651998
67 2 0.536617 0.4805 0.68207
125 2 0.577738 0.530273 0.622093
85 1 0.560947 0.534667 0.643598
88 1 0.583631 0.535418 0.653406
97 1 0.56818 0.534643 0.618961
91 1 0.559134 0.538881 0.628587
202 2 0.508241 0.553408 0.607108
172 1 0.519474 0.565523 0.621831
200 2 0.516171 0.559235 0.629307
164 1 0.530725 0.573555 0.625664
127 2 0.541169 0.548232 0.633558
197 2 0.53065 0.607419 0.604584
192 2 0.533317 0.576899 0.635684
169 1 0.535852 0.610337 0.613488
209 2 0.603302 0.550363 0.612801
182 1 0.606152 0.55756 0.620296
122 2 0.603653 0.53654 0.661999
99 1 0.54758 0.546696 0.625674
180 1 0.582637 0.566037 0.624894
151 3 0.594 0.558086 0.629245
161 1 0.545994 0.602299 0.619028
121 2 0.543434 0.557467 0.654052
195 2 0.560796 0.599155 0.634995
129 2 0.549859 0.569596 0.673748
162 1 0.561421 0.58202 0.617551
93 1 0.553997 0.556456 0.65792
101 1 0.558281 0.564274 0.669039
103 1 0.57136 0.564707 0.673783
131 2 0.57447 0.571672 0.681517
87 1 0.562991 0.546554 0.65369
89 1 0.576248 0.547168 0.659315
95 1 0.581729 0.557154 0.667723
123 2 0.590903 0.557832 0.671285
196 2 0.557885 0.582698 0.638621
204 2 0.578553 0.571234 0.645182
176 1 0.574932 0.572314 0.634962
168 1 0.56489 0.581296 0.631358
144 2 0.58769 0.597028 0.643864
116 1 0.595241 0.592501 0.637
68 2 0.59196 0.589846 0.62749
51 1 0.609203 0.598876 0.63777
167 1 0.552599 0.605436 0.631687
47 1 0.612098 0.609305 0.649024
52 1 0.577573 0.612148 0.66146
48 1 0.602226 0.609005 0.659922
62 2 0.599233 0.599569 0.663196
44 3 0.57494 0.600815 0.66726
74 2 0.552425 0.609087 0.6739
147 2 0.606496 0.580707 0.653457
118 1 0.606064 0.583503 0.642988
146 2 0.609761 0.575891 0.636226
43 3 0.611556 0.590532 0.614693
69 2 0.617542 0.587813 0.606893
213 2 0.626238 0.546809 0.623731
184 1 0.618773 0.554522 0.628882
153 3 0.627173 0.565866 0.632859
214 2 0.614804 0.551128 0.638027
219 2 0.646337 0.56264 0.66932
155 3 0.635477 0.552514 0.651915
190 1 0.644528 0.572623 0.665564
186 1 0.634428 0.563447 0.645167
188 1 0.639798 0.575348 0.653631
216 2 0.638957 0.585321 0.64876
220 2 0.648655 0.580838 0.671586
114 1 0.61725 0.598835 0.624686
83 3 0.628873 0.60389 0.623458
63 2 0.626282 0.601403 0.664175
64 2 0.631985 0.603295 0.647847
49 1 0.625455 0.608117 0.654686
45 3 0.651377 0.60573 0.665374
218 2 0.464287 0.664651 0.640988
205 2 0.524272 0.62816 0.61741
152 3 0.506798 0.646396 0.645587
185 1 0.496778 0.65695 0.648366
215 2 0.479459 0.64811 0.635912
211 2 0.516827 0.652518 0.663638
187 1 0.483342 0.656335 0.641352
154 3 0.498665 0.666437 0.656872
189 1 0.473826 0.665012 0.644971
217 2 0.476202 0.672994 0.652281
177 1 0.531871 0.622308 0.620516
207 2 0.526833 0.627981 0.650348
183 1 0.519061 0.649196 0.653045
212 2 0.523317 0.657512 0.648763
57 1 0.588569 0.637109 0.615008
54 1 0.59953 0.635673 0.624805
73 2 0.546805 0.625104 0.670081
70 2 0.569013 0.631093 0.660519
40 3 0.58994 0.616551 0.656038
55 1 0.566104 0.621495 0.662941
58 1 0.554651 0.618573 0.669566
42 3 0.599369 0.622977 0.631476
61 2 0.605922 0.613139 0.669902
50 1 0.610404 0.622665 0.641939
46 3 0.608284 0.645322 0.625689
208 2 0.536195 0.637941 0.66087
181 1 0.530006 0.638057 0.652113
150 3 0.53843 0.638221 0.639786
65 2 0.619215 0.62563 0.636188
179 1 0.539302 0.626127 0.632036
66 2 0.606808 0.630357 0.648972
175 1 0.549335 0.617675 0.63832
203 2 0.554935 0.623356 0.646166
71 2 0.653652 0.639574 0.657855
34 2 0.626285 0.649309 0.611714
41 3 0.634407 0.620866 0.657546
53 1 0.64697 0.617506 0.662984
75 2 0.676244 0.634175 0.665203
56 1 0.656397 0.629806 0.662487
76 2 0.670053 0.618333 0.671767
59 1 0.669051 0.627599 0.667086
