ITEM: TIMESTEP
330000
ITEM: NUMBER OF ATOMS
220
ITEM: BOX BOUNDS ff ff ff
-5.0000000000000000e+01 5.0000000000000000e+01
-5.0000000000000000e+01 5.0000000000000000e+01
-5.0000000000000000e+01 5.0000000000000000e+01
ITEM: ATOMS id type xs ys zs
21 1 0.50967 0.609283 0.520945
18 1 0.51111 0.599005 0.529156
33 2 0.504748 0.59036 0.529404
38 2 0.501114 0.608754 0.514402
7 3 0.531867 0.609155 0.536648
217 2 0.566232 0.593159 0.536702
218 2 0.558443 0.610105 0.536148
39 2 0.5154 0.617933 0.521915
35 2 0.569886 0.538932 0.582333
34 2 0.584181 0.541354 0.571681
19 1 0.573764 0.543316 0.573798
15 1 0.522991 0.599911 0.538689
25 2 0.516529 0.575088 0.584644
10 1 0.518125 0.582793 0.576896
24 2 0.509487 0.581878 0.570041
6 3 0.510469 0.584032 0.60315
2 3 0.517748 0.596219 0.583204
14 1 0.513452 0.594777 0.596826
8 1 0.531805 0.580623 0.569748
17 1 0.508216 0.6077 0.603402
22 2 0.525677 0.564876 0.555269
11 1 0.533872 0.591005 0.558107
3 3 0.523116 0.588913 0.547864
9 1 0.532061 0.565956 0.564158
27 2 0.533821 0.601344 0.561584
23 2 0.528516 0.559379 0.571959
30 2 0.534316 0.583057 0.599452
32 2 0.508245 0.617017 0.598539
20 1 0.504195 0.606977 0.61599
219 2 0.546112 0.535396 0.6001
190 1 0.552213 0.542466 0.606115
4 3 0.540178 0.578083 0.593539
26 2 0.543721 0.589855 0.553669
28 2 0.545898 0.593356 0.579519
12 1 0.543534 0.582568 0.580344
5 3 0.545072 0.544312 0.577313
1 3 0.546069 0.562097 0.560287
29 2 0.552016 0.577166 0.57661
220 2 0.558074 0.549632 0.60068
13 1 0.551286 0.551537 0.568667
183 1 0.577784 0.580156 0.58248
207 2 0.575352 0.568329 0.600247
211 2 0.588701 0.580205 0.580447
212 2 0.573123 0.572302 0.57657
208 2 0.563896 0.581477 0.598666
181 1 0.574533 0.5788 0.597324
150 3 0.58244 0.586967 0.607249
61 2 0.553982 0.600057 0.606353
152 3 0.573012 0.593313 0.576069
154 3 0.573528 0.581134 0.555
185 1 0.570791 0.59158 0.562456
16 1 0.566192 0.550165 0.565371
31 2 0.570436 0.554524 0.556597
128 2 0.590769 0.558711 0.60387
187 1 0.563997 0.603371 0.555191
100 1 0.593142 0.558228 0.614307
189 1 0.56233 0.602223 0.541962
48 1 0.550353 0.610588 0.60625
120 2 0.608771 0.573226 0.615569
215 2 0.561238 0.612442 0.560595
40 3 0.539373 0.613728 0.596942
205 2 0.564398 0.568529 0.617734
148 2 0.723742 0.549495 0.58177
149 2 0.713889 0.54814 0.566052
119 1 0.71463 0.550934 0.576648
145 2 0.69446 0.557866 0.577403
82 3 0.693149 0.562183 0.603362
117 1 0.704138 0.556126 0.582644
115 1 0.705521 0.558668 0.597543
84 3 0.716807 0.556067 0.603579
70 2 0.523173 0.617916 0.576924
73 2 0.528479 0.627183 0.554092
55 1 0.532881 0.620606 0.57413
58 1 0.535775 0.624813 0.56168
146 2 0.528537 0.644854 0.615266
147 2 0.521622 0.628299 0.614639
74 2 0.546138 0.626778 0.55895
52 1 0.543746 0.619677 0.584622
62 2 0.559063 0.61643 0.60301
44 3 0.555783 0.623132 0.581175
213 2 0.531131 0.520527 0.646095
155 3 0.53681 0.52353 0.620842
210 2 0.540418 0.51234 0.668173
151 3 0.537564 0.53256 0.668448
214 2 0.544934 0.509723 0.643677
184 1 0.542128 0.519408 0.647935
186 1 0.546079 0.530543 0.626392
153 3 0.548901 0.530544 0.64035
182 1 0.5447 0.520768 0.662885
206 2 0.564618 0.535774 0.659894
209 2 0.555473 0.520944 0.664597
122 2 0.581414 0.53893 0.641557
123 2 0.590674 0.539524 0.666989
65 2 0.526295 0.608323 0.618715
37 2 0.504194 0.597935 0.621958
57 1 0.533874 0.567548 0.628112
60 1 0.528356 0.557599 0.635446
54 1 0.529895 0.58226 0.630157
78 2 0.521101 0.559692 0.643045
46 3 0.52086 0.585912 0.63837
199 2 0.527251 0.611351 0.660629
77 2 0.531317 0.547149 0.634535
66 2 0.531734 0.606017 0.634462
171 1 0.537139 0.60896 0.664491
50 1 0.535048 0.605355 0.624117
42 3 0.537757 0.590706 0.621789
204 2 0.530082 0.555717 0.676891
72 2 0.539961 0.564944 0.619784
130 2 0.578019 0.542921 0.616144
92 1 0.603132 0.565865 0.620805
134 2 0.620964 0.612515 0.623862
188 1 0.554081 0.541134 0.61931
191 2 0.539747 0.591148 0.652156
102 1 0.585596 0.54849 0.621817
131 2 0.604595 0.542245 0.688401
180 1 0.546144 0.544026 0.667717
216 2 0.560714 0.547376 0.624902
178 1 0.559351 0.544862 0.662909
176 1 0.539877 0.555704 0.672498
179 1 0.578626 0.584523 0.620793
196 2 0.541731 0.577051 0.674382
63 2 0.557489 0.599826 0.633652
163 1 0.543973 0.597405 0.659879
165 1 0.554912 0.613645 0.68123
197 2 0.556583 0.567966 0.64053
203 2 0.593203 0.599022 0.627716
175 1 0.585504 0.591928 0.630773
177 1 0.56924 0.57472 0.624718
169 1 0.564827 0.574505 0.637991
198 2 0.576312 0.558119 0.657583
157 1 0.556818 0.594589 0.665059
170 1 0.566359 0.557181 0.661881
159 1 0.561701 0.602753 0.67557
168 1 0.546466 0.567912 0.671236
161 1 0.570924 0.582523 0.64754
156 1 0.566266 0.582627 0.662392
158 1 0.578021 0.585332 0.672034
160 1 0.57552 0.597685 0.678974
162 1 0.559376 0.568835 0.665337
164 1 0.589694 0.578167 0.674676
167 1 0.58194 0.590534 0.644016
172 1 0.59953 0.583266 0.683806
192 2 0.591376 0.569004 0.66974
195 2 0.587391 0.596057 0.651404
200 2 0.608297 0.577422 0.686415
94 1 0.587197 0.546479 0.635817
88 1 0.597573 0.554306 0.642126
104 1 0.610608 0.605323 0.655551
86 1 0.605258 0.563616 0.634669
132 2 0.607722 0.610343 0.664493
49 1 0.557852 0.61036 0.630121
89 1 0.603128 0.553712 0.65598
95 1 0.599048 0.546074 0.667348
103 1 0.606833 0.547579 0.67908
124 2 0.607914 0.585196 0.663379
96 1 0.610619 0.591039 0.654711
108 1 0.613231 0.612868 0.643956
47 1 0.546756 0.614122 0.620644
64 2 0.568018 0.612236 0.626307
166 1 0.584973 0.602825 0.688138
174 1 0.597037 0.5955 0.690425
106 1 0.617742 0.606566 0.632012
90 1 0.615482 0.584904 0.643061
133 2 0.647226 0.543078 0.61792
126 2 0.624134 0.588191 0.623274
87 1 0.614686 0.562117 0.656141
101 1 0.618341 0.556355 0.678934
138 2 0.676747 0.573751 0.621221
98 1 0.619351 0.592659 0.631672
85 1 0.61738 0.569035 0.642521
80 3 0.669257 0.554483 0.622624
111 1 0.680531 0.563827 0.624857
105 1 0.645707 0.550935 0.624729
139 2 0.682579 0.564967 0.635345
109 1 0.656969 0.55875 0.628567
125 2 0.624722 0.548085 0.625925
91 1 0.631465 0.565628 0.637148
97 1 0.633079 0.554063 0.629196
99 1 0.642341 0.573105 0.641771
107 1 0.655359 0.569627 0.637511
121 2 0.631101 0.57039 0.668613
127 2 0.64118 0.581576 0.648877
135 2 0.66439 0.575144 0.640856
93 1 0.622165 0.564252 0.66797
129 2 0.623938 0.557788 0.687991
143 2 0.702068 0.567061 0.62256
142 2 0.697431 0.550567 0.620523
113 1 0.694185 0.560866 0.618487
201 2 0.538275 0.626135 0.677398
36 2 0.502356 0.616143 0.621497
118 1 0.529647 0.634449 0.619249
144 2 0.528292 0.625813 0.639389
116 1 0.533128 0.633305 0.633379
68 2 0.53507 0.642513 0.639235
141 2 0.601847 0.647631 0.618393
137 2 0.604152 0.624938 0.625546
136 2 0.619455 0.633612 0.627093
173 1 0.542938 0.617115 0.674598
83 3 0.567513 0.634289 0.616169
41 3 0.557421 0.619278 0.642236
45 3 0.581764 0.618126 0.643122
69 2 0.559132 0.658079 0.622896
43 3 0.551762 0.651776 0.622326
114 1 0.555912 0.638755 0.618542
53 1 0.570331 0.622469 0.647412
76 2 0.590925 0.633797 0.659889
56 1 0.569589 0.632314 0.659172
59 1 0.581237 0.636309 0.664553
71 2 0.560664 0.635108 0.663464
75 2 0.582372 0.642721 0.673459
51 1 0.544161 0.628664 0.622491
67 2 0.581845 0.639698 0.631528
110 1 0.609337 0.632666 0.631366
81 3 0.58851 0.645678 0.634898
112 1 0.601969 0.646393 0.629407
140 2 0.607924 0.65484 0.633684
193 2 0.559363 0.620131 0.688987
79 3 0.610931 0.627163 0.644751
194 2 0.582868 0.612128 0.692856
202 2 0.604654 0.599762 0.697262
