ITEM: TIMESTEP
750000
ITEM: NUMBER OF ATOMS
220
ITEM: BOX BOUNDS ff ff ff
-5.0000000000000000e+01 5.0000000000000000e+01
-5.0000000000000000e+01 5.0000000000000000e+01
-5.0000000000000000e+01 5.0000000000000000e+01
ITEM: ATOMS id type xs ys zs
17 1 0.515066 0.525134 0.583667
32 2 0.522277 0.52066 0.590568
36 2 0.522496 0.51353 0.568324
37 2 0.507677 0.524512 0.564141
20 1 0.515321 0.520833 0.571501
38 2 0.462152 0.505101 0.627636
21 1 0.465297 0.515041 0.625511
18 1 0.477043 0.519502 0.628841
39 2 0.458479 0.52088 0.619602
209 2 0.543254 0.523289 0.599766
182 1 0.552481 0.525849 0.605036
220 2 0.597691 0.478962 0.568569
190 1 0.593266 0.484389 0.577807
186 1 0.577551 0.499949 0.589377
188 1 0.584379 0.494933 0.57679
153 3 0.568844 0.511688 0.589657
216 2 0.579866 0.498666 0.567317
184 1 0.563763 0.515065 0.603117
219 2 0.59619 0.480293 0.586744
155 3 0.5805 0.492038 0.599104
214 2 0.57234 0.518498 0.60922
210 2 0.556275 0.534972 0.59997
213 2 0.561089 0.505857 0.607757
25 2 0.499681 0.560417 0.596108
10 1 0.498771 0.552937 0.603984
16 1 0.510462 0.605482 0.600612
31 2 0.51489 0.600447 0.591857
24 2 0.488697 0.550477 0.606536
6 3 0.49334 0.536206 0.58156
28 2 0.523509 0.561753 0.609205
2 3 0.507421 0.541298 0.600396
14 1 0.504569 0.535346 0.587669
78 2 0.546662 0.570335 0.602242
54 1 0.542583 0.59576 0.607165
77 2 0.546646 0.570563 0.583899
60 1 0.546412 0.576434 0.593164
57 1 0.544905 0.590062 0.593358
72 2 0.54562 0.595453 0.584225
206 2 0.570411 0.545362 0.605987
130 2 0.585912 0.568382 0.579689
205 2 0.5698 0.595295 0.603664
207 2 0.580254 0.608751 0.589105
150 3 0.588052 0.616463 0.607798
128 2 0.596447 0.590058 0.580602
100 1 0.5973 0.583882 0.588972
177 1 0.575151 0.594945 0.613206
102 1 0.592277 0.570746 0.587854
92 1 0.605655 0.587923 0.599676
179 1 0.58473 0.60489 0.616009
42 3 0.542838 0.609872 0.607576
122 2 0.591172 0.550551 0.596574
94 1 0.594691 0.561073 0.597618
86 1 0.609717 0.57812 0.608726
120 2 0.609116 0.598658 0.60091
88 1 0.603673 0.565424 0.608039
80 3 0.67217 0.574262 0.590737
133 2 0.649682 0.569776 0.581286
105 1 0.648991 0.573297 0.591772
97 1 0.636925 0.573054 0.597952
109 1 0.660637 0.577744 0.598703
111 1 0.684826 0.575796 0.598217
125 2 0.627936 0.569478 0.592919
138 2 0.687236 0.586995 0.599756
126 2 0.627451 0.602979 0.613092
107 1 0.659385 0.58301 0.612
139 2 0.683404 0.572516 0.608496
91 1 0.635981 0.577726 0.611263
142 2 0.696985 0.574799 0.581413
113 1 0.696062 0.568915 0.590077
143 2 0.691947 0.559589 0.585692
84 3 0.696517 0.554401 0.615313
115 1 0.707148 0.55771 0.608604
82 3 0.708545 0.566158 0.596996
34 2 0.51241 0.626313 0.594538
19 1 0.509197 0.618811 0.601838
44 3 0.535053 0.64719 0.587995
61 2 0.527925 0.64393 0.61708
35 2 0.505794 0.623044 0.611569
181 1 0.578989 0.617097 0.596143
208 2 0.568879 0.615811 0.60083
70 2 0.5577 0.670662 0.597059
58 1 0.55138 0.668916 0.577236
73 2 0.556674 0.678215 0.573457
55 1 0.551946 0.66454 0.589934
74 2 0.544866 0.663625 0.571013
52 1 0.544178 0.652205 0.595603
40 3 0.546397 0.649631 0.609323
211 2 0.58873 0.632397 0.582465
183 1 0.579558 0.630315 0.587978
212 2 0.572027 0.629638 0.580003
185 1 0.585362 0.646995 0.605572
187 1 0.579395 0.655837 0.615763
152 3 0.575255 0.641508 0.596943
48 1 0.537022 0.638369 0.614487
215 2 0.568773 0.656401 0.616019
154 3 0.598048 0.644608 0.605117
62 2 0.53413 0.632226 0.605385
217 2 0.598247 0.663272 0.624166
33 2 0.483909 0.512249 0.633513
15 1 0.480777 0.534347 0.625997
7 3 0.471838 0.542633 0.621928
3 3 0.494148 0.537056 0.629783
151 3 0.549782 0.528834 0.619151
123 2 0.598877 0.538032 0.617656
204 2 0.548526 0.53645 0.642408
180 1 0.557913 0.539738 0.623675
131 2 0.614936 0.527192 0.634531
1 3 0.507156 0.582621 0.609463
12 1 0.519609 0.558678 0.618909
29 2 0.524376 0.548958 0.620653
23 2 0.488851 0.574343 0.616531
13 1 0.506163 0.596533 0.612479
8 1 0.504084 0.558985 0.617869
46 3 0.541032 0.587738 0.617337
9 1 0.499922 0.574291 0.619271
27 2 0.502346 0.55493 0.638971
22 2 0.50021 0.578363 0.629922
5 3 0.502484 0.602396 0.623284
11 1 0.496919 0.5516 0.629866
30 2 0.53096 0.574649 0.625441
26 2 0.487346 0.556429 0.630637
4 3 0.526119 0.567431 0.628695
199 2 0.53994 0.599053 0.662976
65 2 0.529461 0.611835 0.621387
144 2 0.531484 0.613438 0.64856
201 2 0.549252 0.597326 0.684993
176 1 0.554838 0.54257 0.636823
171 1 0.548631 0.59243 0.664049
173 1 0.55416 0.592141 0.677044
178 1 0.567915 0.54737 0.616847
191 2 0.550951 0.587098 0.643484
196 2 0.558792 0.555667 0.653793
200 2 0.618488 0.553851 0.657584
197 2 0.564617 0.577558 0.619608
198 2 0.582898 0.563916 0.619113
169 1 0.572223 0.584691 0.622061
163 1 0.554894 0.586014 0.653201
165 1 0.566489 0.586319 0.679495
168 1 0.56026 0.553823 0.643114
203 2 0.598904 0.610627 0.631787
175 1 0.591917 0.604009 0.62832
157 1 0.567037 0.579508 0.655878
170 1 0.575041 0.557576 0.6238
159 1 0.573157 0.579326 0.668871
161 1 0.578858 0.584321 0.634487
156 1 0.576027 0.573024 0.645125
158 1 0.588331 0.569937 0.653932
160 1 0.586628 0.573596 0.667841
162 1 0.571074 0.560892 0.636629
164 1 0.600095 0.563005 0.650327
167 1 0.58749 0.595147 0.638442
172 1 0.609536 0.559833 0.660778
192 2 0.601354 0.559515 0.639771
195 2 0.59173 0.595269 0.648765
166 1 0.596076 0.571398 0.678103
174 1 0.607756 0.564016 0.67435
194 2 0.594986 0.574698 0.688557
59 1 0.581629 0.618991 0.66934
75 2 0.586351 0.612863 0.676658
56 1 0.573374 0.614098 0.660164
193 2 0.571607 0.588695 0.688557
71 2 0.570914 0.603556 0.658092
202 2 0.614909 0.562519 0.68239
66 2 0.545978 0.608234 0.627412
95 1 0.606241 0.543463 0.62272
89 1 0.609393 0.556868 0.618912
124 2 0.620664 0.576969 0.645845
50 1 0.539791 0.615113 0.62179
135 2 0.667399 0.587996 0.61718
132 2 0.615902 0.596855 0.660428
103 1 0.615583 0.537362 0.631202
104 1 0.617797 0.598416 0.650233
101 1 0.626914 0.543753 0.636558
129 2 0.633957 0.537844 0.642769
87 1 0.62007 0.563793 0.625482
108 1 0.619117 0.611782 0.645105
96 1 0.620793 0.587245 0.642096
90 1 0.62271 0.58985 0.627918
106 1 0.620956 0.613891 0.631344
98 1 0.624533 0.602711 0.623162
93 1 0.628444 0.557604 0.635056
85 1 0.62245 0.577514 0.61837
121 2 0.636793 0.563041 0.63974
99 1 0.647073 0.5824 0.618904
127 2 0.64575 0.584266 0.629536
117 1 0.720013 0.551046 0.613155
145 2 0.727929 0.55096 0.605794
148 2 0.71466 0.548268 0.63302
119 1 0.721775 0.54679 0.625191
149 2 0.729673 0.540908 0.627102
147 2 0.515514 0.617436 0.63086
118 1 0.51651 0.626138 0.636896
146 2 0.507536 0.632988 0.637596
116 1 0.526047 0.622965 0.648393
68 2 0.522538 0.626611 0.657944
43 3 0.520951 0.649439 0.652873
189 1 0.587509 0.662422 0.624226
76 2 0.583612 0.629245 0.67031
41 3 0.55689 0.62106 0.642009
53 1 0.56699 0.624885 0.651396
63 2 0.56059 0.627925 0.622613
218 2 0.582817 0.669163 0.631841
45 3 0.572225 0.636582 0.652701
49 1 0.554468 0.630661 0.630851
64 2 0.55582 0.641162 0.634234
69 2 0.522197 0.657499 0.658676
51 1 0.530622 0.633244 0.637358
114 1 0.530098 0.647928 0.642035
83 3 0.537748 0.656867 0.637057
47 1 0.540365 0.629374 0.625577
67 2 0.586432 0.652788 0.65394
81 3 0.5959 0.653813 0.654141
140 2 0.598153 0.638205 0.668531
112 1 0.603982 0.643414 0.660283
137 2 0.600863 0.628262 0.644427
110 1 0.608836 0.633023 0.650142
141 2 0.612029 0.647355 0.665877
79 3 0.617179 0.621578 0.655611
134 2 0.621434 0.623746 0.627571
136 2 0.61492 0.638492 0.642467
