ITEM: TIMESTEP
1060000
ITEM: NUMBER OF ATOMS
220
ITEM: BOX BOUNDS ff ff ff
-5.0000000000000000e+01 5.0000000000000000e+01
-5.0000000000000000e+01 5.0000000000000000e+01
-5.0000000000000000e+01 5.0000000000000000e+01
ITEM: ATOMS id type xs ys zs
128 2 0.505997 0.517988 0.561834
219 2 0.518812 0.505576 0.582484
186 1 0.530677 0.498925 0.606144
190 1 0.528685 0.50011 0.582027
155 3 0.518257 0.499729 0.609475
130 2 0.491802 0.507257 0.579027
122 2 0.494363 0.515103 0.604268
102 1 0.498011 0.516481 0.581787
94 1 0.498688 0.520391 0.595594
100 1 0.506452 0.522436 0.571361
88 1 0.507894 0.531216 0.597861
220 2 0.533088 0.501079 0.572346
213 2 0.528661 0.507971 0.627547
153 3 0.54194 0.498429 0.615202
188 1 0.536438 0.497586 0.591784
216 2 0.546999 0.494149 0.589611
92 1 0.515853 0.53194 0.575071
120 2 0.523307 0.533807 0.567319
127 2 0.535762 0.526207 0.604226
99 1 0.543136 0.531864 0.598891
135 2 0.557279 0.516462 0.600955
107 1 0.556187 0.526575 0.596981
109 1 0.566894 0.535576 0.592299
80 3 0.580083 0.529911 0.592366
111 1 0.591956 0.53885 0.591332
143 2 0.60614 0.522629 0.597406
113 1 0.606109 0.531792 0.591396
142 2 0.609627 0.528844 0.581232
139 2 0.591833 0.544739 0.600362
206 2 0.561731 0.523984 0.621655
82 3 0.61748 0.539777 0.597094
86 1 0.516714 0.537095 0.588171
89 1 0.511669 0.537461 0.610771
87 1 0.520989 0.548116 0.608821
85 1 0.525627 0.548528 0.59433
124 2 0.514759 0.571876 0.606551
96 1 0.519872 0.573797 0.597664
104 1 0.520732 0.586461 0.592842
132 2 0.516444 0.593624 0.600022
90 1 0.525164 0.563443 0.589125
110 1 0.523424 0.613113 0.582232
136 2 0.524355 0.60905 0.592033
108 1 0.525903 0.589498 0.579881
79 3 0.52831 0.601772 0.573454
112 1 0.509559 0.618462 0.578218
140 2 0.503998 0.609324 0.577206
67 2 0.504009 0.621429 0.558044
98 1 0.530452 0.566512 0.576796
106 1 0.530771 0.579124 0.571607
78 2 0.524561 0.625837 0.607735
200 2 0.54507 0.589925 0.603016
172 1 0.555447 0.585722 0.604622
91 1 0.540847 0.545527 0.594292
138 2 0.591048 0.545824 0.582795
202 2 0.564824 0.590048 0.585354
174 1 0.566167 0.586077 0.595283
105 1 0.565148 0.548602 0.587471
166 1 0.578152 0.579484 0.597466
133 2 0.573108 0.555185 0.584451
126 2 0.534039 0.558735 0.569242
97 1 0.551238 0.553535 0.58882
125 2 0.549531 0.563709 0.586111
134 2 0.533317 0.581785 0.560727
194 2 0.585368 0.579087 0.589514
193 2 0.608801 0.570976 0.603952
71 2 0.604775 0.614729 0.566616
41 3 0.600393 0.622038 0.591744
165 1 0.604906 0.566772 0.612907
160 1 0.579429 0.573152 0.610297
56 1 0.612946 0.6194 0.570994
53 1 0.612688 0.626012 0.585159
75 2 0.624033 0.617489 0.55246
59 1 0.623435 0.621628 0.562926
76 2 0.631512 0.627997 0.566718
144 2 0.616541 0.613759 0.611694
198 2 0.573216 0.545931 0.616049
159 1 0.591532 0.567779 0.617016
84 3 0.615273 0.553573 0.57693
115 1 0.620863 0.550271 0.588044
148 2 0.635432 0.569725 0.577487
119 1 0.640487 0.564594 0.585132
117 1 0.634335 0.555191 0.592543
149 2 0.650662 0.567101 0.587831
145 2 0.639671 0.550077 0.600385
201 2 0.624565 0.560024 0.620073
137 2 0.531609 0.620381 0.580423
141 2 0.505362 0.624697 0.585923
81 3 0.508661 0.626351 0.566109
65 2 0.579505 0.609935 0.599914
45 3 0.621586 0.634808 0.587999
64 2 0.60579 0.631495 0.60759
49 1 0.5966 0.630503 0.603345
63 2 0.593705 0.640476 0.600542
66 2 0.572055 0.625722 0.596952
55 1 0.5728 0.672238 0.616103
40 3 0.577565 0.647776 0.614215
70 2 0.570233 0.672034 0.605835
46 3 0.549223 0.624023 0.596954
54 1 0.551127 0.617336 0.607848
50 1 0.575257 0.618705 0.605187
58 1 0.572499 0.684026 0.621972
37 2 0.620024 0.645094 0.618918
36 2 0.610726 0.661232 0.621393
20 1 0.613572 0.650419 0.624866
73 2 0.570869 0.694097 0.617333
184 1 0.537114 0.500369 0.629077
214 2 0.532136 0.492717 0.635512
151 3 0.542366 0.520487 0.643517
209 2 0.557281 0.509538 0.631057
182 1 0.547924 0.507606 0.637411
210 2 0.551624 0.501428 0.646252
180 1 0.549631 0.531793 0.638215
178 1 0.559729 0.532336 0.627815
204 2 0.541356 0.540749 0.654851
176 1 0.548645 0.542179 0.64716
123 2 0.497873 0.528393 0.625372
95 1 0.505818 0.535392 0.623949
131 2 0.507364 0.540526 0.644886
103 1 0.510333 0.54287 0.6347
93 1 0.525729 0.555355 0.620108
101 1 0.520179 0.553052 0.632736
129 2 0.523819 0.559399 0.640042
77 2 0.519016 0.617291 0.621584
60 1 0.527482 0.619221 0.615583
147 2 0.597487 0.599255 0.602712
121 2 0.534117 0.56203 0.617508
57 1 0.539572 0.614037 0.617368
173 1 0.614106 0.561504 0.622619
192 2 0.548451 0.57875 0.6244
171 1 0.610262 0.557102 0.63549
164 1 0.556436 0.579759 0.617239
196 2 0.556835 0.560461 0.654817
118 1 0.598347 0.601161 0.613289
168 1 0.55708 0.553454 0.646127
170 1 0.567399 0.544056 0.625292
163 1 0.596395 0.558279 0.639975
157 1 0.587673 0.564379 0.63091
191 2 0.593209 0.554709 0.649672
195 2 0.579612 0.563146 0.662061
158 1 0.56939 0.574686 0.619996
203 2 0.582599 0.581221 0.678045
175 1 0.575576 0.58304 0.669402
167 1 0.575503 0.573176 0.658997
179 1 0.569335 0.595622 0.667757
161 1 0.571472 0.576666 0.645992
156 1 0.573374 0.567548 0.633286
162 1 0.565746 0.554464 0.635024
205 2 0.555164 0.606204 0.654497
177 1 0.561782 0.598357 0.655649
169 1 0.563623 0.588953 0.645472
197 2 0.558589 0.591176 0.636118
150 3 0.571314 0.604766 0.6783
146 2 0.595739 0.591967 0.618545
43 3 0.596896 0.598232 0.640565
116 1 0.610164 0.607744 0.618016
68 2 0.61568 0.601229 0.623718
69 2 0.593005 0.596237 0.649656
72 2 0.54154 0.607461 0.625404
199 2 0.617812 0.553991 0.642824
25 2 0.608207 0.611211 0.662118
30 2 0.607775 0.612762 0.681944
4 3 0.616366 0.616306 0.686645
6 3 0.626293 0.629374 0.634277
1 3 0.628161 0.590886 0.656476
13 1 0.635059 0.578684 0.657327
16 1 0.634097 0.569686 0.645082
31 2 0.630757 0.573218 0.635455
5 3 0.641769 0.574109 0.667419
19 1 0.637466 0.557026 0.646208
34 2 0.637192 0.551235 0.637766
35 2 0.640698 0.552709 0.65618
22 2 0.622576 0.5931 0.67693
23 2 0.639514 0.595737 0.67283
9 1 0.629565 0.598436 0.669768
24 2 0.617716 0.608608 0.64714
10 1 0.61665 0.61456 0.65625
8 1 0.628873 0.612817 0.665394
217 2 0.546122 0.637465 0.625557
181 1 0.568848 0.619135 0.67466
51 1 0.594105 0.613401 0.621295
208 2 0.572804 0.618875 0.664011
114 1 0.588941 0.608586 0.635056
42 3 0.563708 0.611775 0.612191
211 2 0.547804 0.617682 0.670734
62 2 0.572483 0.630619 0.626633
47 1 0.586602 0.623891 0.612917
44 3 0.576648 0.659085 0.636115
52 1 0.57618 0.658757 0.623264
74 2 0.574358 0.683722 0.632519
83 3 0.580747 0.616536 0.640906
48 1 0.580852 0.634952 0.621382
61 2 0.58756 0.636825 0.630017
152 3 0.552467 0.638266 0.666999
185 1 0.551154 0.636462 0.653103
215 2 0.550729 0.658904 0.648917
187 1 0.550364 0.648619 0.644083
189 1 0.546881 0.647057 0.63089
218 2 0.547026 0.655884 0.624656
154 3 0.552382 0.625272 0.646591
212 2 0.551164 0.627174 0.684764
183 1 0.554661 0.625081 0.674208
207 2 0.574467 0.626067 0.68157
17 1 0.609784 0.646425 0.637028
32 2 0.602417 0.651777 0.643539
14 1 0.616342 0.633717 0.641203
29 2 0.63486 0.625335 0.682805
12 1 0.625916 0.622284 0.677157
28 2 0.621632 0.631568 0.673327
27 2 0.64118 0.612824 0.648219
3 3 0.651414 0.615355 0.668231
15 1 0.664326 0.620657 0.665294
18 1 0.67519 0.616852 0.675415
11 1 0.64023 0.618196 0.657999
26 2 0.638807 0.62856 0.656793
2 3 0.61098 0.628162 0.653454
7 3 0.669329 0.626555 0.654789
39 2 0.689926 0.619465 0.661477
21 1 0.68815 0.616561 0.671158
38 2 0.696693 0.613922 0.678103
33 2 0.672434 0.613992 0.685118
