ITEM: TIMESTEP
650000
ITEM: NUMBER OF ATOMS
220
ITEM: BOX BOUNDS ff ff ff
-5.0000000000000000e+01 5.0000000000000000e+01
-5.0000000000000000e+01 5.0000000000000000e+01
-5.0000000000000000e+01 5.0000000000000000e+01
ITEM: ATOMS id type xs ys zs
21 1 0.574867 0.548396 0.535038
38 2 0.578726 0.549168 0.525322
218 2 0.585028 0.591284 0.538139
184 1 0.542135 0.520603 0.61287
214 2 0.532359 0.515496 0.614923
213 2 0.541074 0.531532 0.613233
219 2 0.519849 0.529231 0.569676
155 3 0.523948 0.526372 0.594592
186 1 0.535168 0.522516 0.589915
220 2 0.53102 0.527712 0.555879
190 1 0.530139 0.527481 0.566707
39 2 0.574381 0.538718 0.540282
188 1 0.539845 0.523882 0.575253
153 3 0.545468 0.517506 0.598155
216 2 0.549558 0.522086 0.572174
25 2 0.525512 0.578896 0.57432
2 3 0.531235 0.596839 0.584601
1 3 0.533896 0.56313 0.596212
31 2 0.514316 0.54535 0.598774
14 1 0.51943 0.603832 0.580571
6 3 0.513212 0.603673 0.569387
13 1 0.52876 0.558507 0.608707
16 1 0.518223 0.547786 0.608066
77 2 0.505535 0.578857 0.605602
60 1 0.506459 0.588238 0.609792
78 2 0.498114 0.59449 0.611507
10 1 0.534191 0.585639 0.575299
24 2 0.535898 0.588491 0.565229
32 2 0.519605 0.615432 0.600087
18 1 0.569872 0.558765 0.541403
33 2 0.569298 0.568872 0.537133
7 3 0.562819 0.545246 0.56125
15 1 0.564629 0.556661 0.55542
26 2 0.54423 0.55947 0.571423
22 2 0.539029 0.581561 0.602401
8 1 0.547155 0.578601 0.581646
11 1 0.552219 0.566736 0.572775
9 1 0.5442 0.573902 0.596517
27 2 0.558077 0.559197 0.579023
217 2 0.595965 0.585561 0.552175
189 1 0.588621 0.592549 0.548315
3 3 0.558637 0.569217 0.559435
130 2 0.576349 0.561549 0.595493
23 2 0.553099 0.571767 0.60154
12 1 0.5588 0.589229 0.581054
30 2 0.552786 0.609034 0.586941
4 3 0.55745 0.600634 0.58978
28 2 0.559732 0.592745 0.571119
187 1 0.584794 0.603086 0.555406
29 2 0.567442 0.582963 0.583459
207 2 0.581923 0.600549 0.594042
212 2 0.602566 0.613494 0.588732
181 1 0.584343 0.608992 0.600275
185 1 0.588982 0.60518 0.569703
154 3 0.595301 0.595209 0.574894
205 2 0.566556 0.591324 0.607409
208 2 0.574055 0.612823 0.60139
128 2 0.59609 0.579312 0.593985
183 1 0.59255 0.617428 0.59009
152 3 0.586612 0.61758 0.576478
215 2 0.577935 0.611341 0.552368
100 1 0.594332 0.573097 0.602454
102 1 0.584451 0.562444 0.602966
120 2 0.61201 0.582495 0.611543
133 2 0.644363 0.539125 0.618668
80 3 0.663265 0.554654 0.620686
142 2 0.683466 0.556558 0.602207
143 2 0.689264 0.552763 0.617396
113 1 0.68519 0.561372 0.612333
111 1 0.67187 0.566465 0.618846
105 1 0.641059 0.548119 0.624427
84 3 0.704208 0.555123 0.594892
117 1 0.716097 0.577408 0.599035
115 1 0.705458 0.566618 0.60046
149 2 0.734301 0.582071 0.588506
119 1 0.72599 0.574984 0.589983
148 2 0.726325 0.566613 0.583242
82 3 0.695844 0.57121 0.61026
145 2 0.715507 0.585898 0.605108
17 1 0.51669 0.615878 0.58992
37 2 0.507511 0.626293 0.574507
20 1 0.511154 0.626865 0.584878
36 2 0.509186 0.63543 0.590853
73 2 0.535935 0.659196 0.577113
70 2 0.53738 0.654992 0.600347
58 1 0.538458 0.649645 0.580092
211 2 0.594584 0.628097 0.593287
55 1 0.540445 0.647488 0.59324
74 2 0.541092 0.64222 0.572864
52 1 0.545056 0.634373 0.598568
40 3 0.54706 0.635649 0.612521
44 3 0.548302 0.62479 0.590105
61 2 0.547792 0.614649 0.613418
204 2 0.540459 0.5318 0.658777
34 2 0.5073 0.534383 0.619595
151 3 0.548292 0.520379 0.637298
180 1 0.551168 0.534165 0.639913
210 2 0.554597 0.505359 0.623482
182 1 0.552198 0.516149 0.623747
209 2 0.562305 0.521282 0.62208
123 2 0.580368 0.530826 0.635943
103 1 0.58959 0.53444 0.656041
131 2 0.584212 0.526296 0.66137
206 2 0.557941 0.539664 0.619699
72 2 0.527093 0.585427 0.613448
57 1 0.518239 0.591387 0.615659
19 1 0.514069 0.542456 0.619718
35 2 0.519594 0.544919 0.629065
54 1 0.519371 0.604025 0.624433
199 2 0.516804 0.596155 0.649257
171 1 0.525879 0.59359 0.654937
201 2 0.518595 0.603104 0.672873
173 1 0.52666 0.597613 0.668429
42 3 0.53282 0.606305 0.628671
46 3 0.508652 0.610778 0.627062
191 2 0.533357 0.583471 0.637383
163 1 0.535498 0.586007 0.648055
165 1 0.538304 0.595066 0.67529
193 2 0.539918 0.598349 0.68488
92 1 0.603788 0.575331 0.613113
5 3 0.534554 0.561506 0.619869
176 1 0.546343 0.539026 0.652539
196 2 0.54788 0.556395 0.666549
95 1 0.586626 0.537397 0.642259
122 2 0.577128 0.545559 0.614101
168 1 0.549689 0.55201 0.656668
150 3 0.591199 0.606008 0.613099
178 1 0.556089 0.542679 0.629854
179 1 0.582388 0.597658 0.621314
177 1 0.570652 0.590482 0.617724
94 1 0.584427 0.553671 0.613691
197 2 0.555081 0.577647 0.62398
203 2 0.595348 0.602727 0.637642
175 1 0.586687 0.596993 0.634819
169 1 0.563652 0.582731 0.627213
198 2 0.565275 0.562432 0.628406
157 1 0.547312 0.582331 0.65522
170 1 0.559792 0.556082 0.634345
159 1 0.548915 0.587655 0.668453
161 1 0.568583 0.582152 0.64046
156 1 0.560022 0.574862 0.651253
158 1 0.568052 0.574033 0.664141
160 1 0.561903 0.582426 0.673909
162 1 0.555602 0.560579 0.646822
164 1 0.578296 0.565173 0.668595
167 1 0.580147 0.589452 0.644382
172 1 0.58455 0.567864 0.68091
192 2 0.581034 0.557241 0.661732
195 2 0.584252 0.588699 0.654706
88 1 0.593246 0.556048 0.624634
200 2 0.593824 0.561896 0.683417
89 1 0.593873 0.548815 0.637615
86 1 0.602327 0.567033 0.624572
132 2 0.603121 0.596615 0.675661
104 1 0.606152 0.594665 0.665105
124 2 0.60664 0.573623 0.666147
96 1 0.607387 0.582136 0.659525
63 2 0.5538 0.603408 0.636431
87 1 0.604221 0.555259 0.645494
90 1 0.609763 0.580724 0.645207
85 1 0.610859 0.567305 0.637406
101 1 0.599031 0.540377 0.664429
56 1 0.565836 0.617136 0.676093
71 2 0.556489 0.61324 0.67976
76 2 0.585529 0.621503 0.681128
59 1 0.575906 0.619544 0.684568
108 1 0.609874 0.606139 0.657227
129 2 0.600655 0.53626 0.674566
93 1 0.607197 0.550723 0.65821
166 1 0.568599 0.585296 0.686174
138 2 0.666266 0.572987 0.612704
106 1 0.614284 0.604479 0.643789
134 2 0.618528 0.612741 0.638612
125 2 0.619997 0.545046 0.622127
139 2 0.673817 0.571133 0.628756
109 1 0.650992 0.558283 0.626876
97 1 0.627735 0.550756 0.627034
107 1 0.648209 0.568379 0.63677
135 2 0.656947 0.574119 0.640628
126 2 0.618442 0.589125 0.628744
98 1 0.614215 0.591699 0.637951
91 1 0.625197 0.562001 0.635468
99 1 0.635147 0.57056 0.640962
121 2 0.615266 0.555505 0.663803
127 2 0.632267 0.5786 0.646662
147 2 0.532004 0.648363 0.63344
65 2 0.528003 0.627136 0.632014
66 2 0.533172 0.617356 0.645642
50 1 0.53494 0.619646 0.635388
144 2 0.535226 0.636751 0.654958
118 1 0.5411 0.64991 0.638526
45 3 0.579357 0.619709 0.656242
53 1 0.567581 0.618078 0.661043
116 1 0.542441 0.643409 0.651633
68 2 0.548171 0.648021 0.659669
62 2 0.563224 0.622352 0.616625
48 1 0.552322 0.623 0.618292
146 2 0.544399 0.659975 0.638029
69 2 0.576131 0.660925 0.640619
83 3 0.57495 0.635728 0.629791
41 3 0.555274 0.614869 0.654407
49 1 0.557475 0.613495 0.639781
64 2 0.568351 0.613976 0.638518
43 3 0.567571 0.655427 0.642032
114 1 0.565992 0.642989 0.635261
47 1 0.548936 0.624295 0.633179
51 1 0.551346 0.63843 0.638211
67 2 0.585653 0.643768 0.647597
81 3 0.59301 0.649067 0.650856
140 2 0.593675 0.636743 0.667655
112 1 0.600901 0.641521 0.660264
110 1 0.608731 0.629963 0.653529
137 2 0.604275 0.626707 0.64438
141 2 0.608231 0.64774 0.666039
79 3 0.608913 0.618733 0.663747
136 2 0.61851 0.632327 0.651157
75 2 0.574701 0.617897 0.695177
174 1 0.58086 0.578872 0.68921
194 2 0.564029 0.592584 0.693537
202 2 0.587783 0.581636 0.69717
