ITEM: TIMESTEP
85000
ITEM: NUMBER OF ATOMS
220
ITEM: BOX BOUNDS ff ff ff
-5.0000000000000000e+01 5.0000000000000000e+01
-5.0000000000000000e+01 5.0000000000000000e+01
-5.0000000000000000e+01 5.0000000000000000e+01
ITEM: ATOMS id type xs ys zs
38 2 0.56387 0.606006 0.523035
21 1 0.55857 0.607124 0.532462
33 2 0.558334 0.58672 0.536685
18 1 0.555146 0.596629 0.539849
39 2 0.556342 0.61727 0.535346
35 2 0.566954 0.524635 0.587866
19 1 0.569655 0.532065 0.595147
34 2 0.576804 0.529112 0.60254
5 3 0.550541 0.539983 0.575478
219 2 0.527316 0.544733 0.612008
190 1 0.537828 0.547065 0.612774
4 3 0.51854 0.57254 0.600923
30 2 0.509253 0.575954 0.599688
25 2 0.510259 0.569673 0.577906
10 1 0.516448 0.576931 0.572645
24 2 0.518505 0.572685 0.562884
6 3 0.498924 0.5876 0.592855
2 3 0.508692 0.589335 0.570218
14 1 0.500064 0.593034 0.581103
8 1 0.530418 0.5782 0.579861
28 2 0.525746 0.591973 0.596684
12 1 0.528488 0.581383 0.595329
23 2 0.530549 0.556172 0.578831
17 1 0.491349 0.604975 0.577852
220 2 0.541459 0.554988 0.606469
37 2 0.482412 0.604275 0.597043
20 1 0.482986 0.609151 0.587421
65 2 0.527072 0.61224 0.618111
29 2 0.538019 0.57993 0.600463
9 1 0.537539 0.564438 0.577629
27 2 0.532419 0.598589 0.57236
40 3 0.541387 0.609032 0.598671
22 2 0.54135 0.563466 0.567475
11 1 0.538704 0.589753 0.573363
7 3 0.545301 0.611154 0.556291
13 1 0.553877 0.548331 0.584716
1 3 0.549001 0.561584 0.586817
3 3 0.544869 0.586771 0.560031
15 1 0.547748 0.598896 0.553056
26 2 0.546988 0.592899 0.579735
183 1 0.574537 0.588501 0.578767
207 2 0.570829 0.571439 0.591776
211 2 0.585157 0.587047 0.576319
212 2 0.569031 0.583539 0.570721
208 2 0.56045 0.584504 0.594962
181 1 0.570773 0.582268 0.592317
150 3 0.579774 0.586405 0.603512
61 2 0.557439 0.600494 0.609638
152 3 0.571297 0.603243 0.578016
154 3 0.585083 0.603911 0.55784
185 1 0.577139 0.609216 0.566501
48 1 0.553335 0.610343 0.607818
16 1 0.564354 0.544327 0.595215
31 2 0.567006 0.551499 0.602696
205 2 0.557219 0.571182 0.611715
128 2 0.58674 0.552614 0.61148
138 2 0.673692 0.58018 0.609418
111 1 0.678296 0.571274 0.613767
80 3 0.668097 0.560275 0.61415
82 3 0.689432 0.567976 0.59108
145 2 0.691855 0.568567 0.564534
113 1 0.691012 0.567585 0.605994
133 2 0.647893 0.544629 0.614868
117 1 0.701111 0.566002 0.56945
142 2 0.694813 0.557934 0.609057
149 2 0.711206 0.562034 0.551321
115 1 0.702091 0.566233 0.584703
143 2 0.699053 0.574446 0.608335
119 1 0.711689 0.562572 0.562056
148 2 0.721099 0.559772 0.566425
84 3 0.713632 0.564731 0.590272
32 2 0.491716 0.609647 0.568054
70 2 0.519449 0.613459 0.586259
36 2 0.476371 0.617517 0.585814
73 2 0.514449 0.631431 0.570086
55 1 0.526882 0.620688 0.58319
58 1 0.524148 0.630454 0.574674
146 2 0.535725 0.645209 0.605997
147 2 0.526588 0.629452 0.60925
74 2 0.531634 0.637557 0.571683
118 1 0.533897 0.636649 0.61241
62 2 0.561073 0.616394 0.603009
217 2 0.586033 0.626757 0.548349
187 1 0.572891 0.623927 0.564571
52 1 0.541041 0.61958 0.589107
218 2 0.575554 0.641253 0.552795
189 1 0.578478 0.631056 0.554772
44 3 0.550195 0.628071 0.585712
215 2 0.565283 0.628501 0.570749
69 2 0.56384 0.658729 0.620019
83 3 0.57119 0.634165 0.61637
155 3 0.527286 0.527708 0.628349
213 2 0.531541 0.511266 0.642393
186 1 0.540063 0.529039 0.62949
184 1 0.542019 0.511067 0.645315
214 2 0.545959 0.501166 0.642959
151 3 0.537501 0.526074 0.665443
210 2 0.538493 0.50525 0.665754
153 3 0.54932 0.521101 0.63693
182 1 0.543577 0.513387 0.660469
206 2 0.562989 0.529165 0.653092
209 2 0.554036 0.512661 0.663274
122 2 0.590883 0.53393 0.650451
130 2 0.580328 0.535002 0.627863
123 2 0.606466 0.536401 0.672213
180 1 0.545726 0.537497 0.662939
178 1 0.558338 0.538106 0.656693
57 1 0.525747 0.572649 0.629149
60 1 0.516363 0.565519 0.635134
54 1 0.524649 0.587978 0.629739
78 2 0.508631 0.570162 0.640824
46 3 0.514471 0.593932 0.635161
199 2 0.529168 0.607759 0.656226
77 2 0.51651 0.554737 0.635009
66 2 0.533093 0.612136 0.634783
50 1 0.535694 0.609387 0.624638
72 2 0.533718 0.568177 0.623749
171 1 0.538283 0.604147 0.660795
42 3 0.536179 0.594114 0.62461
204 2 0.530144 0.548699 0.672641
201 2 0.538298 0.619906 0.675684
188 1 0.545985 0.540416 0.62117
191 2 0.539611 0.58718 0.64756
176 1 0.539721 0.549304 0.667753
196 2 0.541388 0.57046 0.670277
216 2 0.556366 0.54291 0.621778
120 2 0.604061 0.569459 0.616824
173 1 0.543428 0.611094 0.672112
100 1 0.591684 0.552188 0.621047
179 1 0.574939 0.582734 0.616496
92 1 0.601588 0.5619 0.623997
63 2 0.554981 0.603111 0.636672
163 1 0.544331 0.592339 0.655762
165 1 0.555231 0.60653 0.678377
197 2 0.551822 0.56687 0.63615
203 2 0.592158 0.593606 0.62413
102 1 0.588049 0.542128 0.630459
175 1 0.583334 0.587758 0.626655
177 1 0.563599 0.574832 0.619653
169 1 0.560466 0.572546 0.633227
198 2 0.574394 0.550965 0.650309
157 1 0.556045 0.587569 0.661946
170 1 0.564898 0.550504 0.655391
159 1 0.561667 0.595061 0.672904
168 1 0.546096 0.56158 0.666506
161 1 0.569031 0.577559 0.643288
156 1 0.565199 0.575971 0.658029
158 1 0.57696 0.577707 0.667675
160 1 0.574812 0.589038 0.676272
162 1 0.558602 0.562383 0.660005
164 1 0.58861 0.570003 0.669226
167 1 0.580568 0.585051 0.639974
172 1 0.59781 0.573867 0.679268
192 2 0.590528 0.561345 0.662932
195 2 0.587002 0.588878 0.647768
200 2 0.606661 0.567982 0.680825
94 1 0.59397 0.541334 0.643299
88 1 0.604111 0.550837 0.646204
104 1 0.608067 0.603897 0.654823
86 1 0.607893 0.5609 0.636534
132 2 0.605199 0.608572 0.664122
49 1 0.558226 0.612322 0.631796
108 1 0.608919 0.611554 0.642903
64 2 0.568354 0.610071 0.627878
96 1 0.610888 0.590306 0.654519
124 2 0.610413 0.584445 0.663541
106 1 0.612835 0.605712 0.630616
89 1 0.612464 0.552292 0.658429
166 1 0.584029 0.592913 0.686458
45 3 0.578527 0.611304 0.650836
193 2 0.559438 0.611843 0.686794
47 1 0.54842 0.616082 0.620773
134 2 0.613345 0.611508 0.62155
174 1 0.595841 0.585273 0.687509
95 1 0.613029 0.544778 0.670529
90 1 0.615094 0.584423 0.642364
98 1 0.615722 0.591932 0.630345
139 2 0.680568 0.573943 0.624068
109 1 0.656096 0.563666 0.62111
105 1 0.646014 0.553712 0.620451
125 2 0.626075 0.548049 0.62701
85 1 0.618933 0.569704 0.642213
87 1 0.620853 0.563706 0.656189
91 1 0.631953 0.567651 0.634343
97 1 0.633813 0.55555 0.627226
99 1 0.641757 0.577821 0.634815
107 1 0.653968 0.575894 0.628005
121 2 0.636229 0.576774 0.664794
126 2 0.618641 0.587087 0.621166
127 2 0.639959 0.586805 0.640416
135 2 0.661586 0.58357 0.628342
93 1 0.629911 0.568016 0.666137
101 1 0.630876 0.560269 0.677928
103 1 0.622794 0.548669 0.679999
129 2 0.638049 0.562943 0.685581
131 2 0.623705 0.543186 0.689245
144 2 0.52883 0.633073 0.633729
116 1 0.535373 0.638717 0.627231
68 2 0.537815 0.648523 0.631105
53 1 0.569891 0.621012 0.650966
76 2 0.58883 0.623491 0.669774
41 3 0.558975 0.623183 0.642048
56 1 0.571137 0.632076 0.661303
59 1 0.581722 0.631468 0.669671
71 2 0.563992 0.640242 0.66167
75 2 0.583138 0.639306 0.67698
51 1 0.546985 0.631187 0.6197
137 2 0.595387 0.626504 0.62702
79 3 0.60585 0.625357 0.645343
67 2 0.576893 0.643937 0.636326
110 1 0.602457 0.632524 0.632754
81 3 0.584256 0.647201 0.641616
114 1 0.559701 0.639917 0.616287
112 1 0.597112 0.647006 0.634809
141 2 0.596143 0.651643 0.624882
43 3 0.556221 0.653705 0.616459
140 2 0.604504 0.653076 0.640345
136 2 0.611281 0.633053 0.626369
194 2 0.582147 0.601375 0.692909
202 2 0.60343 0.588044 0.694832
