ITEM: TIMESTEP
1055000
ITEM: NUMBER OF ATOMS
220
ITEM: BOX BOUNDS ff ff ff
-5.0000000000000000e+01 5.0000000000000000e+01
-5.0000000000000000e+01 5.0000000000000000e+01
-5.0000000000000000e+01 5.0000000000000000e+01
ITEM: ATOMS id type xs ys zs
128 2 0.517818 0.519756 0.54465
219 2 0.504608 0.508807 0.578038
186 1 0.518841 0.501068 0.598666
190 1 0.512363 0.501516 0.575739
155 3 0.508361 0.508331 0.600024
130 2 0.49584 0.520545 0.554118
122 2 0.489117 0.530232 0.575504
102 1 0.504021 0.524927 0.559501
94 1 0.499984 0.530585 0.57191
123 2 0.491663 0.545928 0.599815
100 1 0.517172 0.524187 0.554897
92 1 0.527272 0.529672 0.563218
88 1 0.510432 0.535037 0.580735
86 1 0.523451 0.535531 0.575364
89 1 0.51183 0.54172 0.594461
95 1 0.501817 0.547232 0.60259
220 2 0.511763 0.499533 0.565275
213 2 0.530436 0.516612 0.617138
153 3 0.529393 0.497758 0.608038
188 1 0.521217 0.496885 0.584369
216 2 0.529595 0.490713 0.580693
120 2 0.537989 0.529515 0.560183
127 2 0.543305 0.516904 0.580089
99 1 0.550526 0.521894 0.585734
135 2 0.562759 0.505308 0.589727
107 1 0.562588 0.516055 0.590357
109 1 0.573528 0.524442 0.594874
80 3 0.585627 0.518559 0.598923
111 1 0.596388 0.52862 0.600065
143 2 0.603922 0.531243 0.579745
113 1 0.601518 0.537108 0.588095
142 2 0.593318 0.543136 0.58505
91 1 0.548712 0.535941 0.587016
105 1 0.572577 0.538155 0.593792
139 2 0.605247 0.522427 0.604494
138 2 0.593665 0.534715 0.608868
87 1 0.52573 0.543513 0.597165
85 1 0.534651 0.542628 0.584715
124 2 0.520201 0.564969 0.58684
93 1 0.529369 0.548256 0.610397
96 1 0.528462 0.567269 0.58138
104 1 0.530216 0.580163 0.575328
132 2 0.521987 0.586959 0.576119
202 2 0.521037 0.592149 0.599614
174 1 0.528919 0.589152 0.60648
121 2 0.539724 0.54799 0.612045
137 2 0.534377 0.603093 0.573131
166 1 0.541723 0.584789 0.602566
90 1 0.53788 0.55687 0.579366
110 1 0.541568 0.605628 0.565064
136 2 0.537148 0.612499 0.557865
82 3 0.612783 0.546194 0.592426
108 1 0.541681 0.581495 0.56685
79 3 0.545511 0.592995 0.558982
98 1 0.548428 0.559203 0.57059
133 2 0.579846 0.543489 0.597692
201 2 0.591493 0.569902 0.591349
126 2 0.554693 0.550566 0.569362
97 1 0.559916 0.544161 0.590473
125 2 0.559724 0.554946 0.590768
106 1 0.549989 0.57109 0.563196
134 2 0.558885 0.570932 0.555888
194 2 0.544992 0.586255 0.592374
193 2 0.568596 0.580088 0.591894
71 2 0.577992 0.585764 0.578575
41 3 0.586639 0.604924 0.597021
165 1 0.572289 0.574985 0.600095
173 1 0.585041 0.56843 0.599917
160 1 0.550236 0.579138 0.612553
159 1 0.563767 0.573325 0.611225
75 2 0.588715 0.582145 0.556615
56 1 0.586512 0.592685 0.574829
199 2 0.598824 0.55835 0.612439
171 1 0.588823 0.56148 0.612098
59 1 0.591946 0.589532 0.563132
53 1 0.590427 0.604856 0.58342
76 2 0.600527 0.596133 0.561523
84 3 0.613564 0.554458 0.569982
115 1 0.615553 0.555834 0.582422
140 2 0.559645 0.607311 0.579284
65 2 0.563647 0.605582 0.613427
50 1 0.566999 0.615413 0.61352
147 2 0.583 0.591858 0.61274
144 2 0.60607 0.601361 0.616789
117 1 0.622943 0.568269 0.588054
148 2 0.629249 0.57724 0.570624
119 1 0.629659 0.5771 0.580791
149 2 0.633094 0.585886 0.584862
37 2 0.628609 0.596983 0.606536
145 2 0.62174 0.570634 0.598621
36 2 0.61961 0.609292 0.596715
20 1 0.625048 0.60702 0.605567
46 3 0.53969 0.618153 0.61508
45 3 0.600152 0.611251 0.577395
112 1 0.554882 0.613094 0.571234
141 2 0.563036 0.61438 0.563707
67 2 0.547532 0.626844 0.584359
81 3 0.548675 0.625719 0.575132
49 1 0.58945 0.618246 0.603936
64 2 0.599212 0.620547 0.605143
63 2 0.58433 0.625524 0.598151
66 2 0.562815 0.620992 0.604863
44 3 0.583592 0.658901 0.62671
52 1 0.593605 0.653273 0.620803
74 2 0.601693 0.674181 0.633807
55 1 0.607686 0.659465 0.619917
58 1 0.609711 0.669945 0.628329
17 1 0.626957 0.615432 0.615687
32 2 0.623639 0.625945 0.615837
73 2 0.619481 0.674948 0.627846
184 1 0.527604 0.506321 0.620699
214 2 0.517301 0.507527 0.624771
182 1 0.5352 0.502822 0.633685
151 3 0.535117 0.513491 0.643983
210 2 0.529969 0.494741 0.639082
180 1 0.540687 0.525866 0.639392
206 2 0.547319 0.520897 0.620563
209 2 0.545025 0.498861 0.6331
178 1 0.547724 0.529251 0.627731
103 1 0.505494 0.550361 0.61558
131 2 0.497663 0.553381 0.622809
204 2 0.533852 0.536065 0.657498
176 1 0.539479 0.536524 0.648852
101 1 0.519529 0.552017 0.619536
129 2 0.523341 0.55565 0.629193
200 2 0.515828 0.590667 0.623474
172 1 0.52502 0.587065 0.620179
192 2 0.529834 0.577909 0.640279
164 1 0.532442 0.57907 0.629815
196 2 0.542966 0.557072 0.654059
118 1 0.585149 0.594379 0.623515
168 1 0.544614 0.549395 0.647197
198 2 0.557714 0.543804 0.614797
170 1 0.553263 0.542426 0.62479
163 1 0.580631 0.560124 0.623523
157 1 0.567743 0.566217 0.623075
191 2 0.584827 0.55558 0.63269
195 2 0.569126 0.558861 0.656685
158 1 0.545277 0.574961 0.625133
203 2 0.577521 0.572551 0.674309
175 1 0.570523 0.576909 0.667189
167 1 0.56613 0.569598 0.655899
179 1 0.566547 0.590541 0.667747
161 1 0.559174 0.57535 0.645107
156 1 0.555838 0.566621 0.63251
162 1 0.550625 0.551698 0.634763
205 2 0.561169 0.60816 0.65665
177 1 0.560676 0.597149 0.656365
169 1 0.557215 0.589486 0.64554
197 2 0.552737 0.595547 0.638
150 3 0.571673 0.597722 0.678568
181 1 0.56116 0.607166 0.684116
146 2 0.581492 0.588134 0.631244
43 3 0.58986 0.602244 0.648618
116 1 0.599424 0.600276 0.626057
68 2 0.604782 0.596873 0.634346
69 2 0.588873 0.601236 0.658088
51 1 0.586797 0.609491 0.627616
114 1 0.58375 0.613564 0.642708
54 1 0.547154 0.619194 0.625754
6 3 0.642583 0.600073 0.62638
24 2 0.65203 0.614856 0.647422
1 3 0.657133 0.613746 0.673118
25 2 0.637804 0.606651 0.651167
14 1 0.635588 0.611165 0.626959
13 1 0.658533 0.605879 0.685064
16 1 0.673224 0.600857 0.686166
31 2 0.680942 0.605885 0.680868
72 2 0.548261 0.622631 0.64812
77 2 0.523336 0.627072 0.648802
78 2 0.521321 0.622958 0.632265
60 1 0.527865 0.624347 0.639788
57 1 0.541167 0.621533 0.639427
62 2 0.572547 0.638969 0.618015
207 2 0.560389 0.616847 0.678275
208 2 0.551474 0.602646 0.682178
47 1 0.581347 0.618341 0.616912
42 3 0.561227 0.620526 0.626813
40 3 0.593823 0.639884 0.616313
83 3 0.577864 0.624103 0.647471
48 1 0.581468 0.632522 0.621115
61 2 0.583307 0.633289 0.631595
30 2 0.606496 0.616076 0.655671
4 3 0.614873 0.616095 0.661397
22 2 0.636593 0.612547 0.676607
23 2 0.643384 0.628138 0.681497
10 1 0.641683 0.616215 0.64917
70 2 0.614634 0.657266 0.612524
29 2 0.621108 0.630952 0.672722
12 1 0.6234 0.627703 0.662703
33 2 0.662607 0.652544 0.624532
28 2 0.619128 0.635471 0.656031
9 1 0.643453 0.620401 0.673322
27 2 0.638371 0.646131 0.66259
8 1 0.638735 0.62599 0.660401
3 3 0.65148 0.643601 0.645485
15 1 0.653488 0.657526 0.644353
18 1 0.660075 0.660223 0.631248
11 1 0.645733 0.639124 0.659059
26 2 0.654591 0.639065 0.665305
2 3 0.635217 0.621491 0.636963
7 3 0.648983 0.666199 0.652604
21 1 0.660028 0.673245 0.626574
38 2 0.66211 0.67525 0.616056
39 2 0.657836 0.682071 0.632477
212 2 0.559265 0.603114 0.704962
35 2 0.668286 0.584878 0.700588
19 1 0.675848 0.590789 0.694506
34 2 0.685878 0.588749 0.696352
152 3 0.574579 0.619136 0.702333
183 1 0.560952 0.612217 0.698738
185 1 0.574698 0.631873 0.707468
154 3 0.564248 0.639642 0.708355
215 2 0.597331 0.633503 0.712342
187 1 0.587631 0.638377 0.713681
217 2 0.577677 0.655638 0.720502
211 2 0.552582 0.618928 0.701698
189 1 0.586779 0.649938 0.720491
218 2 0.594621 0.6562 0.724776
5 3 0.649215 0.602257 0.693077
