ITEM: TIMESTEP
135000
ITEM: NUMBER OF ATOMS
220
ITEM: BOX BOUNDS ff ff ff
-5.0000000000000000e+01 5.0000000000000000e+01
-5.0000000000000000e+01 5.0000000000000000e+01
-5.0000000000000000e+01 5.0000000000000000e+01
ITEM: ATOMS id type xs ys zs
38 2 0.566367 0.593682 0.516233
21 1 0.562005 0.596735 0.525441
33 2 0.558777 0.577001 0.531896
18 1 0.558069 0.587645 0.534318
39 2 0.561366 0.607385 0.527261
149 2 0.673779 0.585385 0.538457
219 2 0.521122 0.541946 0.602203
188 1 0.536402 0.542183 0.616604
35 2 0.562669 0.520159 0.592689
34 2 0.571585 0.522986 0.608198
19 1 0.565918 0.527173 0.600163
5 3 0.549756 0.536624 0.579703
190 1 0.530384 0.546273 0.605575
4 3 0.520791 0.574761 0.597605
30 2 0.512484 0.579017 0.594166
25 2 0.514509 0.570459 0.574615
10 1 0.522228 0.575301 0.568712
24 2 0.524203 0.569121 0.559869
6 3 0.506452 0.592503 0.585372
2 3 0.517256 0.588433 0.563716
14 1 0.509408 0.59579 0.573081
8 1 0.535417 0.576707 0.57724
28 2 0.531838 0.591828 0.59259
12 1 0.532792 0.581134 0.592208
17 1 0.503384 0.608463 0.567517
37 2 0.492753 0.612736 0.58502
32 2 0.505773 0.6119 0.557386
220 2 0.533652 0.554889 0.599912
20 1 0.495235 0.615587 0.575086
23 2 0.534354 0.55494 0.577028
27 2 0.539768 0.596594 0.568003
29 2 0.541095 0.578183 0.598521
9 1 0.542164 0.562599 0.577389
11 1 0.544839 0.587028 0.570052
7 3 0.551367 0.605212 0.549808
22 2 0.54749 0.561438 0.567897
13 1 0.554484 0.545292 0.58793
1 3 0.551629 0.559268 0.588399
3 3 0.549171 0.581789 0.55667
15 1 0.552085 0.592576 0.547594
26 2 0.553457 0.589749 0.576068
183 1 0.580956 0.582798 0.580917
207 2 0.578139 0.567897 0.596409
211 2 0.591607 0.581353 0.580362
212 2 0.577099 0.57635 0.572812
208 2 0.565167 0.579653 0.595773
181 1 0.575991 0.578605 0.594867
150 3 0.58221 0.585956 0.606225
61 2 0.561048 0.598956 0.611411
152 3 0.577917 0.597071 0.578069
154 3 0.590379 0.594529 0.557127
185 1 0.582482 0.600885 0.565076
48 1 0.557331 0.609043 0.609516
16 1 0.563331 0.540318 0.599556
31 2 0.567083 0.547167 0.606832
205 2 0.559984 0.569034 0.614632
40 3 0.546442 0.607703 0.599333
62 2 0.565386 0.615034 0.605072
128 2 0.587342 0.552087 0.611574
216 2 0.54552 0.547265 0.619606
138 2 0.667639 0.585496 0.610568
80 3 0.663245 0.564541 0.610003
111 1 0.67288 0.57599 0.609087
82 3 0.673287 0.579714 0.583824
113 1 0.681059 0.576083 0.596145
145 2 0.662761 0.584474 0.560511
117 1 0.673278 0.582315 0.559553
142 2 0.685903 0.566506 0.594962
115 1 0.681427 0.579597 0.572075
143 2 0.689687 0.582905 0.59726
119 1 0.679226 0.583172 0.547546
133 2 0.64349 0.548536 0.611216
139 2 0.679722 0.575272 0.617511
148 2 0.689779 0.581827 0.546436
84 3 0.69416 0.577535 0.571379
70 2 0.525688 0.611567 0.583665
36 2 0.49027 0.624413 0.57139
73 2 0.524004 0.627796 0.565456
55 1 0.534 0.617588 0.580701
146 2 0.539654 0.644607 0.606461
147 2 0.530002 0.629293 0.607595
58 1 0.533081 0.62632 0.5706
74 2 0.541404 0.632756 0.568078
52 1 0.547149 0.616835 0.588406
217 2 0.588727 0.613431 0.542829
187 1 0.577671 0.614743 0.560625
218 2 0.579275 0.629263 0.545134
189 1 0.582021 0.619395 0.548854
44 3 0.556466 0.625514 0.585863
215 2 0.571053 0.620418 0.566794
155 3 0.51985 0.524824 0.620655
213 2 0.521648 0.520388 0.646654
186 1 0.53086 0.530381 0.624633
214 2 0.532739 0.507892 0.64036
184 1 0.532052 0.517601 0.645324
210 2 0.536036 0.507925 0.664213
151 3 0.536442 0.528451 0.668475
153 3 0.538475 0.527648 0.636352
182 1 0.538907 0.517066 0.659109
206 2 0.55868 0.531966 0.65134
209 2 0.549785 0.516098 0.657574
122 2 0.590384 0.532313 0.650017
65 2 0.530934 0.610923 0.617199
57 1 0.52988 0.571887 0.634259
60 1 0.524024 0.56634 0.644959
54 1 0.528633 0.587174 0.632485
78 2 0.518237 0.572058 0.651949
46 3 0.51849 0.592966 0.637917
199 2 0.527822 0.606876 0.660411
77 2 0.524409 0.555983 0.647594
171 1 0.537512 0.604072 0.664342
66 2 0.534437 0.611528 0.634123
72 2 0.535912 0.566257 0.627117
50 1 0.538279 0.608338 0.624471
42 3 0.539008 0.593122 0.624915
191 2 0.539774 0.586264 0.651772
204 2 0.533619 0.550335 0.681439
180 1 0.54482 0.539748 0.666177
130 2 0.579176 0.534504 0.627744
178 1 0.555908 0.540419 0.657218
120 2 0.604155 0.569024 0.618057
123 2 0.603578 0.535938 0.67265
173 1 0.543654 0.611573 0.674824
176 1 0.541435 0.551109 0.67391
179 1 0.57658 0.582359 0.61894
196 2 0.545518 0.57184 0.678048
100 1 0.591284 0.551816 0.621654
92 1 0.600937 0.56152 0.625408
63 2 0.559591 0.601655 0.636527
163 1 0.54421 0.592622 0.659374
165 1 0.556093 0.607897 0.68032
197 2 0.553268 0.56724 0.638443
203 2 0.592953 0.594461 0.626124
102 1 0.587167 0.541503 0.630612
175 1 0.584383 0.588613 0.629019
177 1 0.565644 0.573982 0.622151
169 1 0.56212 0.572394 0.63581
198 2 0.571849 0.553235 0.649292
157 1 0.556894 0.58897 0.664311
170 1 0.563523 0.552278 0.656208
159 1 0.562795 0.596504 0.674961
168 1 0.54845 0.563068 0.672344
161 1 0.570042 0.578322 0.645814
156 1 0.565871 0.577249 0.660426
158 1 0.577721 0.578528 0.670134
160 1 0.575933 0.590234 0.678207
162 1 0.559018 0.563845 0.662958
164 1 0.588802 0.57008 0.672098
167 1 0.581418 0.586092 0.642307
172 1 0.597359 0.573081 0.682941
192 2 0.590721 0.561578 0.665575
195 2 0.587772 0.590855 0.649692
200 2 0.605663 0.566738 0.685296
94 1 0.592855 0.540449 0.643499
88 1 0.602211 0.550415 0.647138
104 1 0.608304 0.603117 0.660555
86 1 0.606331 0.560985 0.638403
132 2 0.606212 0.606821 0.670424
49 1 0.560947 0.61185 0.633059
108 1 0.60897 0.61149 0.649267
64 2 0.571296 0.612681 0.629401
89 1 0.610488 0.551697 0.659569
166 1 0.58489 0.59368 0.6887
193 2 0.560466 0.613519 0.688565
47 1 0.551276 0.61517 0.621979
45 3 0.578478 0.610314 0.654665
95 1 0.610144 0.544106 0.671628
174 1 0.595833 0.584976 0.690645
96 1 0.610461 0.589417 0.65918
106 1 0.611369 0.606206 0.636451
124 2 0.609865 0.583013 0.667684
134 2 0.611554 0.612855 0.627855
98 1 0.614229 0.592511 0.635247
90 1 0.613848 0.584012 0.646463
126 2 0.616662 0.588442 0.625308
109 1 0.652524 0.566357 0.619393
105 1 0.64241 0.556529 0.618447
125 2 0.62368 0.549691 0.62637
85 1 0.617614 0.569394 0.644484
87 1 0.619466 0.562656 0.658212
91 1 0.63004 0.568212 0.635765
97 1 0.631382 0.557131 0.626998
99 1 0.640434 0.577656 0.637254
107 1 0.651891 0.576943 0.628924
121 2 0.636013 0.57382 0.667033
127 2 0.639573 0.58546 0.644664
135 2 0.659652 0.584308 0.629558
93 1 0.628832 0.565682 0.668296
101 1 0.628381 0.558437 0.680425
103 1 0.618886 0.547928 0.682061
129 2 0.635375 0.560378 0.688341
131 2 0.619102 0.542373 0.691291
201 2 0.538525 0.620239 0.678716
118 1 0.53724 0.635862 0.61217
144 2 0.529557 0.630247 0.632269
116 1 0.536467 0.636582 0.627115
83 3 0.574059 0.634048 0.619636
68 2 0.537503 0.64653 0.631739
41 3 0.55956 0.621864 0.644194
69 2 0.566703 0.658883 0.620163
43 3 0.558755 0.652926 0.620638
114 1 0.562456 0.639304 0.62032
53 1 0.56968 0.619851 0.653853
76 2 0.58889 0.622958 0.672716
56 1 0.57064 0.630618 0.664688
59 1 0.580945 0.630232 0.673093
71 2 0.562984 0.638308 0.665632
75 2 0.581542 0.637516 0.681314
51 1 0.549456 0.630276 0.620327
137 2 0.594914 0.62682 0.633832
79 3 0.606271 0.625454 0.651613
67 2 0.578005 0.644702 0.640547
110 1 0.602752 0.63259 0.63924
81 3 0.584643 0.648049 0.646836
112 1 0.598237 0.647266 0.642015
141 2 0.598502 0.653083 0.632599
140 2 0.604666 0.652267 0.649348
136 2 0.611447 0.632649 0.632639
194 2 0.583243 0.602222 0.695232
202 2 0.602867 0.587289 0.698322
