ITEM: TIMESTEP
150000
ITEM: NUMBER OF ATOMS
220
ITEM: BOX BOUNDS ff ff ff
-5.0000000000000000e+01 5.0000000000000000e+01
-5.0000000000000000e+01 5.0000000000000000e+01
-5.0000000000000000e+01 5.0000000000000000e+01
ITEM: ATOMS id type xs ys zs
33 2 0.545952 0.590541 0.534649
38 2 0.553532 0.610851 0.52198
21 1 0.549839 0.611392 0.531999
18 1 0.546427 0.600577 0.539105
39 2 0.549963 0.621105 0.536475
35 2 0.564574 0.52516 0.579985
34 2 0.581739 0.530952 0.583903
19 1 0.571425 0.533322 0.581929
219 2 0.532376 0.531549 0.607434
4 3 0.518027 0.573272 0.601233
30 2 0.510759 0.579859 0.601616
25 2 0.508535 0.573834 0.581883
10 1 0.514462 0.580671 0.575629
24 2 0.51394 0.576435 0.565622
6 3 0.505132 0.595566 0.599341
2 3 0.50809 0.594348 0.574893
14 1 0.503952 0.600232 0.587263
8 1 0.529272 0.579478 0.580587
28 2 0.53054 0.589883 0.600538
12 1 0.530006 0.579852 0.596445
17 1 0.49897 0.613677 0.582782
23 2 0.528446 0.557711 0.580548
27 2 0.534039 0.600879 0.576683
32 2 0.498037 0.616435 0.572199
37 2 0.495476 0.619702 0.60259
20 1 0.494794 0.622091 0.592279
9 1 0.534899 0.565564 0.576324
11 1 0.538378 0.590898 0.574733
22 2 0.534292 0.563934 0.56559
3 3 0.540556 0.589355 0.560137
70 2 0.516771 0.619432 0.583303
7 3 0.542032 0.613857 0.559097
29 2 0.538866 0.574771 0.599968
190 1 0.541016 0.537589 0.609675
40 3 0.536374 0.611875 0.599391
220 2 0.543155 0.545582 0.602733
5 3 0.545354 0.539191 0.575686
13 1 0.552767 0.549097 0.579148
1 3 0.549243 0.563032 0.580023
15 1 0.542617 0.602075 0.553773
26 2 0.548087 0.591048 0.579786
183 1 0.57543 0.585655 0.579724
207 2 0.572531 0.570347 0.595279
211 2 0.586231 0.584198 0.578307
212 2 0.570299 0.57961 0.571863
208 2 0.560079 0.582166 0.594641
181 1 0.570878 0.581064 0.59363
150 3 0.578837 0.587908 0.604296
61 2 0.550184 0.59883 0.607595
152 3 0.572047 0.599774 0.576576
154 3 0.58246 0.595284 0.554864
185 1 0.576616 0.603104 0.563371
48 1 0.548165 0.609557 0.608719
16 1 0.567469 0.546092 0.582105
31 2 0.574497 0.554329 0.583361
128 2 0.591911 0.560491 0.59914
130 2 0.579934 0.544226 0.612819
120 2 0.608125 0.57693 0.60989
100 1 0.59376 0.560476 0.609717
92 1 0.603069 0.569391 0.615591
62 2 0.557135 0.614527 0.605138
217 2 0.581354 0.616866 0.540766
102 1 0.586856 0.550644 0.617496
133 2 0.648571 0.54398 0.619037
138 2 0.676782 0.576875 0.607126
80 3 0.668723 0.559419 0.615595
82 3 0.694785 0.557507 0.597501
145 2 0.700276 0.54569 0.574745
149 2 0.721488 0.537835 0.566518
119 1 0.720797 0.542043 0.576331
117 1 0.709181 0.546567 0.580734
115 1 0.707886 0.552503 0.594722
148 2 0.729686 0.542685 0.582519
84 3 0.718282 0.552737 0.602437
36 2 0.490764 0.631746 0.589619
73 2 0.517007 0.639426 0.568401
55 1 0.525172 0.626347 0.582765
58 1 0.525348 0.636705 0.574477
74 2 0.534177 0.643219 0.573742
52 1 0.537555 0.623366 0.590994
147 2 0.52153 0.627976 0.61486
146 2 0.529078 0.644807 0.61559
187 1 0.573644 0.617708 0.560469
218 2 0.57404 0.632938 0.545932
189 1 0.576382 0.622564 0.548492
44 3 0.54791 0.631184 0.589691
215 2 0.56881 0.623653 0.568204
155 3 0.535776 0.515688 0.628196
213 2 0.541194 0.509875 0.649405
186 1 0.545759 0.523585 0.629822
184 1 0.552013 0.51107 0.649421
214 2 0.555716 0.502006 0.644828
210 2 0.555746 0.503291 0.669249
151 3 0.550552 0.523943 0.670645
153 3 0.555037 0.523123 0.640519
182 1 0.557485 0.512602 0.663505
206 2 0.573564 0.531314 0.655733
209 2 0.568294 0.514067 0.663533
123 2 0.595772 0.540769 0.661182
65 2 0.523632 0.607945 0.62312
57 1 0.530402 0.566573 0.627705
60 1 0.522158 0.557202 0.632685
54 1 0.526566 0.581348 0.629765
78 2 0.512698 0.559763 0.637365
46 3 0.515955 0.584482 0.63658
199 2 0.521749 0.595438 0.659098
77 2 0.524419 0.546872 0.632053
171 1 0.532016 0.595777 0.66284
66 2 0.531199 0.606292 0.637861
50 1 0.533157 0.604807 0.627499
204 2 0.539562 0.54523 0.679254
72 2 0.539622 0.56368 0.622724
42 3 0.536127 0.590204 0.624397
205 2 0.561369 0.567174 0.613341
122 2 0.585202 0.540983 0.636988
191 2 0.5383 0.579121 0.65018
173 1 0.535881 0.605525 0.672418
188 1 0.54887 0.535259 0.620156
216 2 0.55735 0.541604 0.622205
180 1 0.556019 0.536778 0.667652
178 1 0.567667 0.539367 0.660011
176 1 0.547962 0.547195 0.672775
179 1 0.575577 0.583117 0.617366
196 2 0.545263 0.568454 0.674114
63 2 0.556372 0.598436 0.634139
163 1 0.541352 0.586642 0.657496
165 1 0.548939 0.606173 0.677418
197 2 0.55636 0.563836 0.637296
203 2 0.589592 0.598349 0.624082
175 1 0.58249 0.590648 0.627102
177 1 0.565956 0.573316 0.620842
169 1 0.563281 0.571355 0.634547
198 2 0.579216 0.554928 0.651212
157 1 0.55458 0.587112 0.662241
170 1 0.570714 0.552814 0.657261
159 1 0.558398 0.596943 0.671927
168 1 0.551095 0.560356 0.669849
161 1 0.57025 0.578901 0.644318
156 1 0.566303 0.577682 0.659006
158 1 0.577281 0.583236 0.66816
160 1 0.572639 0.594512 0.675781
162 1 0.562507 0.563301 0.661976
164 1 0.589997 0.57794 0.670511
167 1 0.580326 0.588212 0.640623
172 1 0.598569 0.584246 0.680082
192 2 0.593563 0.568935 0.665551
195 2 0.585608 0.593363 0.648632
200 2 0.608446 0.58036 0.682123
94 1 0.589728 0.548956 0.631183
88 1 0.599497 0.557672 0.637078
104 1 0.607537 0.608569 0.651572
86 1 0.606411 0.56757 0.62925
132 2 0.606128 0.613188 0.661415
49 1 0.556615 0.609106 0.631661
64 2 0.566323 0.610299 0.626548
166 1 0.581068 0.600851 0.685254
47 1 0.544916 0.612805 0.623034
174 1 0.594156 0.59582 0.686943
96 1 0.611269 0.595108 0.650836
124 2 0.611289 0.589035 0.659686
89 1 0.605874 0.557243 0.65049
95 1 0.603443 0.548378 0.661446
87 1 0.616528 0.566884 0.650863
103 1 0.612087 0.549631 0.67257
131 2 0.610614 0.542991 0.680965
108 1 0.607909 0.616378 0.639972
106 1 0.610202 0.610783 0.627185
90 1 0.614345 0.589066 0.638416
98 1 0.614188 0.59717 0.626673
134 2 0.609281 0.616478 0.618191
45 3 0.580417 0.614457 0.64458
194 2 0.577715 0.609509 0.691331
111 1 0.679924 0.569413 0.614361
105 1 0.646478 0.554001 0.622203
139 2 0.679893 0.574881 0.623838
126 2 0.616627 0.592662 0.61729
109 1 0.656425 0.564029 0.621245
125 2 0.626588 0.549812 0.628359
85 1 0.617454 0.573993 0.637488
91 1 0.631073 0.570758 0.631205
97 1 0.633969 0.557464 0.627524
99 1 0.6411 0.580717 0.630968
107 1 0.653894 0.577265 0.625756
121 2 0.632629 0.575914 0.662518
127 2 0.639358 0.590836 0.634666
135 2 0.661714 0.58482 0.625251
93 1 0.624638 0.568465 0.662387
101 1 0.622291 0.559571 0.673139
129 2 0.628654 0.559705 0.681783
113 1 0.693615 0.563079 0.611505
142 2 0.695502 0.554982 0.618504
143 2 0.701928 0.570213 0.612745
118 1 0.528763 0.634768 0.619787
201 2 0.528431 0.612677 0.675377
144 2 0.526312 0.625056 0.639742
116 1 0.532076 0.632565 0.634352
68 2 0.535051 0.641435 0.640049
83 3 0.566096 0.632646 0.617662
41 3 0.556352 0.616579 0.644703
193 2 0.551827 0.613125 0.685282
141 2 0.592769 0.656817 0.625003
69 2 0.560217 0.655951 0.625836
43 3 0.551739 0.650853 0.625611
114 1 0.554895 0.637594 0.621293
53 1 0.569375 0.618043 0.650228
76 2 0.589871 0.627615 0.66263
56 1 0.568993 0.625886 0.663256
59 1 0.580904 0.629706 0.667959
71 2 0.559789 0.628923 0.668228
75 2 0.582118 0.635732 0.676787
51 1 0.542559 0.628012 0.623457
137 2 0.592691 0.630912 0.625958
79 3 0.604692 0.630036 0.643264
67 2 0.575325 0.643862 0.635942
110 1 0.599953 0.636993 0.631256
81 3 0.581482 0.649422 0.641306
112 1 0.594188 0.651076 0.634276
140 2 0.600922 0.657217 0.640513
136 2 0.608192 0.638019 0.623976
202 2 0.600757 0.600519 0.694115
