ITEM: TIMESTEP
0
ITEM: NUMBER OF ATOMS
220
ITEM: BOX BOUNDS ff ff ff
-5.0000000000000000e+01 5.0000000000000000e+01
-5.0000000000000000e+01 5.0000000000000000e+01
-5.0000000000000000e+01 5.0000000000000000e+01
ITEM: ATOMS id type xs ys zs
218 2 0.536117 0.487752 0.534932
35 2 0.522218 0.613994 0.505985
77 2 0.547368 0.601608 0.533392
5 3 0.51044 0.617407 0.529003
13 1 0.521435 0.622045 0.531576
16 1 0.532777 0.622898 0.522145
19 1 0.53144 0.618372 0.509646
31 2 0.54213 0.627226 0.525511
34 2 0.539772 0.619002 0.502725
181 1 0.537081 0.49788 0.601829
187 1 0.537485 0.489752 0.555796
208 2 0.526212 0.496544 0.601372
215 2 0.530097 0.497671 0.556325
150 3 0.540051 0.511523 0.598893
152 3 0.538728 0.492236 0.578623
154 3 0.552303 0.476221 0.568969
175 1 0.548779 0.531331 0.608952
179 1 0.540407 0.520183 0.609387
183 1 0.543801 0.489022 0.591517
185 1 0.543882 0.48503 0.56825
189 1 0.540818 0.484279 0.544073
203 2 0.554934 0.533207 0.600194
207 2 0.540824 0.49491 0.611705
211 2 0.554619 0.490798 0.591594
212 2 0.541781 0.47849 0.593765
217 2 0.548164 0.476349 0.543217
4 3 0.530416 0.611625 0.574386
30 2 0.53862 0.60722 0.577186
41 3 0.583981 0.606837 0.595635
42 3 0.556264 0.611919 0.575229
45 3 0.60446 0.613003 0.586881
46 3 0.541898 0.594164 0.571709
50 1 0.555149 0.61026 0.589314
53 1 0.597059 0.604908 0.592244
54 1 0.549082 0.603155 0.567636
56 1 0.600826 0.591175 0.596182
57 1 0.551498 0.606396 0.553423
59 1 0.613222 0.586729 0.593924
60 1 0.545589 0.59922 0.543825
65 2 0.544612 0.611232 0.592219
66 2 0.558457 0.600142 0.591984
67 2 0.565171 0.608343 0.614717
71 2 0.593419 0.584815 0.600896
72 2 0.558094 0.614633 0.550934
78 2 0.538945 0.59093 0.545998
75 2 0.61598 0.576642 0.596819
76 2 0.620846 0.592848 0.589231
84 3 0.727375 0.58815 0.610972
117 1 0.716447 0.567004 0.614079
119 1 0.725645 0.559827 0.607566
143 2 0.707316 0.605788 0.615079
148 2 0.734452 0.564311 0.603101
149 2 0.724456 0.549087 0.60659
1 3 0.52547 0.627297 0.543504
2 3 0.514534 0.638163 0.590028
3 3 0.515037 0.656126 0.560236
6 3 0.493734 0.634149 0.599261
7 3 0.528791 0.674647 0.558887
8 1 0.521453 0.633468 0.56689
9 1 0.515746 0.627287 0.553881
10 1 0.51019 0.632989 0.577526
11 1 0.525984 0.648083 0.564465
12 1 0.533715 0.62514 0.57146
14 1 0.505248 0.638137 0.600028
15 1 0.5179 0.669237 0.557802
17 1 0.511534 0.643843 0.61212
18 1 0.505416 0.67592 0.55358
21 1 0.505479 0.688941 0.550585
22 2 0.506987 0.632992 0.550534
23 2 0.512502 0.61696 0.555698
24 2 0.501525 0.638789 0.574098
25 2 0.50686 0.62263 0.578975
26 2 0.533832 0.648387 0.556801
27 2 0.530139 0.652296 0.573707
28 2 0.538086 0.629501 0.580517
32 2 0.521871 0.647081 0.61167
33 2 0.496275 0.670124 0.552957
55 1 0.526229 0.649612 0.598611
58 1 0.518874 0.660666 0.597124
70 2 0.52198 0.64067 0.603031
73 2 0.508516 0.660769 0.600354
74 2 0.522837 0.66976 0.592742
29 2 0.541518 0.625128 0.563765
40 3 0.545447 0.637098 0.596882
44 3 0.546247 0.658849 0.589119
47 1 0.563737 0.62077 0.596784
48 1 0.559065 0.635123 0.593292
49 1 0.578598 0.619619 0.592539
51 1 0.562173 0.618544 0.612055
52 1 0.540334 0.649463 0.594216
61 2 0.560189 0.636928 0.582525
62 2 0.565237 0.642505 0.598571
63 2 0.579579 0.621367 0.581747
64 2 0.584553 0.627278 0.597674
68 2 0.551727 0.61977 0.615133
83 3 0.576245 0.631585 0.607023
114 1 0.573585 0.621278 0.613001
118 1 0.54934 0.623853 0.612766
141 2 0.598058 0.615791 0.604686
146 2 0.550218 0.633236 0.607402
147 2 0.539349 0.62041 0.615224
38 2 0.496308 0.69384 0.547485
39 2 0.514456 0.695001 0.551111
169 1 0.532749 0.526788 0.631328
177 1 0.53239 0.517911 0.620574
197 2 0.526674 0.524422 0.639987
205 2 0.525606 0.509458 0.621243
151 3 0.557648 0.5215 0.689872
161 1 0.541122 0.537936 0.630893
170 1 0.554414 0.529638 0.654352
178 1 0.558401 0.523225 0.66608
180 1 0.553753 0.527754 0.678428
182 1 0.560569 0.507562 0.688984
198 2 0.558623 0.525996 0.645026
206 2 0.565399 0.51497 0.665189
209 2 0.554198 0.502691 0.681488
210 2 0.571119 0.5062 0.686372
128 2 0.642476 0.537347 0.659145
130 2 0.639579 0.533022 0.683333
157 1 0.527852 0.554673 0.644257
159 1 0.529229 0.568614 0.642435
163 1 0.515467 0.5491 0.647256
165 1 0.518263 0.577028 0.643588
171 1 0.504443 0.557583 0.648413
173 1 0.505827 0.571421 0.646589
191 2 0.5141 0.538518 0.649061
193 2 0.519167 0.587756 0.642221
196 2 0.534696 0.55377 0.668418
199 2 0.494689 0.553445 0.650828
201 2 0.497118 0.577848 0.647553
79 3 0.602344 0.603215 0.63541
81 3 0.58248 0.612104 0.617773
104 1 0.613893 0.603251 0.656299
108 1 0.612567 0.598702 0.643179
110 1 0.604682 0.603895 0.621351
112 1 0.596211 0.615008 0.615458
132 2 0.606704 0.610297 0.660394
136 2 0.615172 0.606139 0.61905
137 2 0.601834 0.594287 0.616914
144 2 0.558768 0.60725 0.621702
156 1 0.541509 0.547451 0.64241
158 1 0.550539 0.559737 0.639309
160 1 0.543022 0.571695 0.639478
162 1 0.545782 0.540576 0.654971
164 1 0.564189 0.559974 0.636649
166 1 0.549094 0.583918 0.637005
167 1 0.549136 0.540208 0.619704
168 1 0.541137 0.545105 0.667319
172 1 0.570284 0.572285 0.634162
174 1 0.562805 0.58415 0.634345
176 1 0.545123 0.538694 0.679048
192 2 0.570172 0.55092 0.636719
194 2 0.543451 0.593186 0.637101
195 2 0.55544 0.5488 0.618031
200 2 0.58095 0.5727 0.632122
202 2 0.567749 0.593629 0.632398
204 2 0.541534 0.542305 0.688648
85 1 0.644736 0.584482 0.667638
86 1 0.643429 0.569229 0.67042
87 1 0.643597 0.589876 0.682189
88 1 0.641819 0.566738 0.684231
89 1 0.641972 0.579279 0.691386
90 1 0.633517 0.58944 0.659102
91 1 0.658 0.587806 0.661614
92 1 0.643656 0.558733 0.661297
93 1 0.644035 0.603069 0.686571
94 1 0.640422 0.553781 0.688979
96 1 0.624367 0.59862 0.66426
97 1 0.668961 0.57948 0.663868
98 1 0.63219 0.58489 0.645983
99 1 0.659425 0.599233 0.653742
100 1 0.642248 0.5457 0.666093
102 1 0.640639 0.543247 0.679809
105 1 0.681346 0.582578 0.658249
106 1 0.621715 0.58952 0.638021
107 1 0.671809 0.602333 0.648123
109 1 0.682769 0.594003 0.650376
120 2 0.645217 0.560234 0.650695
121 2 0.645524 0.61132 0.679681
124 2 0.62405 0.602275 0.674404
125 2 0.668514 0.570667 0.670185
126 2 0.639306 0.578087 0.641449
127 2 0.651304 0.606239 0.652034
133 2 0.689872 0.576098 0.660094
134 2 0.620943 0.585593 0.627926
135 2 0.672577 0.611497 0.642347
138 2 0.686101 0.601244 0.626414
80 3 0.694854 0.597031 0.644896
82 3 0.707369 0.58642 0.622408
111 1 0.694776 0.604101 0.632503
113 1 0.707233 0.600466 0.624655
115 1 0.718058 0.581631 0.615416
139 2 0.694588 0.614879 0.634446
142 2 0.716143 0.603176 0.630438
145 2 0.707744 0.562229 0.618438
20 1 0.504498 0.644967 0.623423
36 2 0.509121 0.64916 0.632299
37 2 0.494149 0.64182 0.624185
43 3 0.570098 0.627479 0.619766
69 2 0.568533 0.625343 0.629121
116 1 0.559974 0.616598 0.616342
140 2 0.598673 0.624519 0.620321
188 1 0.525488 0.500842 0.719141
190 1 0.51895 0.496679 0.730024
216 2 0.520393 0.506516 0.711434
219 2 0.523766 0.490992 0.737901
220 2 0.508413 0.498967 0.73123
153 3 0.543967 0.503083 0.70564
155 3 0.546668 0.491453 0.725425
184 1 0.557656 0.501034 0.702358
186 1 0.539839 0.497734 0.71749
213 2 0.563853 0.505655 0.710131
214 2 0.559814 0.490305 0.701841
95 1 0.640788 0.581805 0.704973
101 1 0.642843 0.605594 0.700248
103 1 0.64124 0.595057 0.709367
122 2 0.639184 0.551711 0.69956
123 2 0.639535 0.57377 0.712157
131 2 0.640347 0.597242 0.719975
129 2 0.643221 0.615826 0.70389
