ITEM: TIMESTEP
1260000
ITEM: NUMBER OF ATOMS
220
ITEM: BOX BOUNDS ff ff ff
-5.0000000000000000e+01 5.0000000000000000e+01
-5.0000000000000000e+01 5.0000000000000000e+01
-5.0000000000000000e+01 5.0000000000000000e+01
ITEM: ATOMS id type xs ys zs
37 2 0.558776 0.623818 0.488328
75 2 0.578548 0.534408 0.533786
76 2 0.56079 0.540744 0.533176
59 1 0.569942 0.539259 0.539068
14 1 0.554634 0.618962 0.514712
6 3 0.54774 0.611009 0.507099
9 1 0.569831 0.600557 0.534536
23 2 0.565809 0.591419 0.530376
2 3 0.553828 0.622418 0.529019
36 2 0.570595 0.6372 0.491645
20 1 0.564488 0.629765 0.496178
17 1 0.563574 0.629309 0.50927
32 2 0.568642 0.636196 0.516376
22 2 0.572411 0.607412 0.526283
68 2 0.529918 0.523778 0.602037
116 1 0.531669 0.532438 0.59559
145 2 0.502978 0.505651 0.6283
144 2 0.536378 0.531165 0.586267
52 1 0.574234 0.528975 0.597461
44 3 0.576929 0.515957 0.596322
74 2 0.597559 0.516372 0.602134
118 1 0.522467 0.544657 0.597755
146 2 0.514935 0.544165 0.605645
147 2 0.520345 0.549645 0.588483
51 1 0.537352 0.546512 0.602074
66 2 0.537 0.571192 0.595506
64 2 0.540514 0.561037 0.57602
31 2 0.603766 0.607217 0.556871
16 1 0.603359 0.609266 0.546167
55 1 0.587927 0.534434 0.598471
40 3 0.561572 0.535582 0.598207
58 1 0.598343 0.526605 0.600159
73 2 0.607926 0.530672 0.598568
13 1 0.59411 0.600585 0.537187
70 2 0.589569 0.545357 0.597896
45 3 0.547917 0.55023 0.551146
47 1 0.547332 0.554809 0.594479
63 2 0.540393 0.544341 0.575631
50 1 0.547353 0.569182 0.597767
49 1 0.546443 0.553385 0.579414
54 1 0.554662 0.592775 0.598375
46 3 0.543815 0.599394 0.601311
41 3 0.559783 0.551577 0.572935
71 2 0.579229 0.540913 0.557956
53 1 0.558316 0.549346 0.558777
56 1 0.570849 0.543089 0.55185
29 2 0.554759 0.585593 0.547746
24 2 0.542143 0.603934 0.530222
10 1 0.54655 0.611222 0.535855
48 1 0.56131 0.550624 0.598269
42 3 0.554609 0.580643 0.590872
62 2 0.569776 0.553459 0.592155
5 3 0.596945 0.597069 0.525121
25 2 0.539175 0.616703 0.542927
30 2 0.541887 0.593198 0.568438
12 1 0.554791 0.595204 0.552804
28 2 0.562773 0.593088 0.560714
4 3 0.542751 0.597688 0.560785
8 1 0.558851 0.606432 0.543055
65 2 0.547536 0.570822 0.608596
61 2 0.565181 0.554517 0.608261
1 3 0.582191 0.597623 0.543521
27 2 0.574248 0.614232 0.555486
57 1 0.569344 0.596168 0.600732
72 2 0.576362 0.588397 0.598326
60 1 0.572429 0.608025 0.605872
132 2 0.586587 0.584073 0.617442
79 3 0.610518 0.597074 0.618578
77 2 0.582244 0.610467 0.608527
34 2 0.619074 0.623936 0.544795
35 2 0.612034 0.618414 0.529639
112 1 0.631019 0.596465 0.603394
140 2 0.626587 0.602654 0.595953
19 1 0.611717 0.617346 0.540235
81 3 0.631145 0.582515 0.597915
137 2 0.631371 0.594423 0.625018
110 1 0.625174 0.600442 0.617084
141 2 0.641008 0.599102 0.603016
67 2 0.636159 0.575961 0.602142
38 2 0.552259 0.657859 0.592056
39 2 0.563325 0.658797 0.577771
21 1 0.556291 0.652586 0.583654
33 2 0.546165 0.63552 0.58855
18 1 0.553151 0.640516 0.58149
7 3 0.570895 0.641619 0.566408
15 1 0.561238 0.633956 0.570107
214 2 0.55867 0.672512 0.625404
11 1 0.564727 0.61761 0.550435
26 2 0.567244 0.627096 0.545503
3 3 0.555575 0.623549 0.562889
186 1 0.580885 0.679051 0.612846
153 3 0.572355 0.668441 0.608749
188 1 0.587877 0.687902 0.602125
155 3 0.581852 0.684371 0.624496
190 1 0.596191 0.697846 0.605443
220 2 0.601264 0.7026 0.597081
216 2 0.586467 0.684105 0.591249
78 2 0.565397 0.61607 0.607882
219 2 0.59841 0.702287 0.615095
117 1 0.502742 0.500872 0.637358
119 1 0.492609 0.495299 0.643232
149 2 0.481797 0.495597 0.639144
148 2 0.494405 0.490986 0.652175
84 3 0.51439 0.490179 0.654862
115 1 0.515751 0.497897 0.644492
82 3 0.527419 0.500729 0.636701
69 2 0.539397 0.530204 0.628796
139 2 0.540955 0.517182 0.652442
43 3 0.534884 0.534946 0.621717
142 2 0.542188 0.490388 0.65149
143 2 0.54682 0.492481 0.634012
113 1 0.541235 0.497086 0.6426
111 1 0.547295 0.509597 0.648472
138 2 0.554863 0.507509 0.655389
80 3 0.556855 0.514423 0.63716
109 1 0.565641 0.524599 0.642008
133 2 0.572025 0.528768 0.621534
105 1 0.573329 0.531375 0.63164
101 1 0.626705 0.533139 0.653413
129 2 0.632817 0.527598 0.6464
103 1 0.629442 0.532475 0.667392
131 2 0.637676 0.526698 0.672041
123 2 0.622362 0.537929 0.686422
114 1 0.538037 0.548134 0.617666
121 2 0.61194 0.538013 0.637758
135 2 0.561958 0.521694 0.66324
107 1 0.566463 0.526838 0.656151
99 1 0.576022 0.536716 0.659231
127 2 0.575879 0.540414 0.66974
87 1 0.606297 0.544447 0.657888
91 1 0.584656 0.542635 0.649838
97 1 0.584177 0.538965 0.6356
85 1 0.594307 0.553604 0.654296
125 2 0.590924 0.544051 0.628436
98 1 0.609952 0.57128 0.646364
89 1 0.609482 0.546531 0.671347
83 3 0.545937 0.55709 0.622653
86 1 0.591374 0.560321 0.668218
90 1 0.597881 0.565218 0.644097
194 2 0.540407 0.577376 0.667373
202 2 0.553495 0.566733 0.648629
166 1 0.549304 0.582202 0.663317
174 1 0.556229 0.576393 0.652404
96 1 0.590337 0.569114 0.633078
200 2 0.569839 0.582512 0.636609
124 2 0.580646 0.565437 0.630641
192 2 0.579447 0.600228 0.647805
172 1 0.567011 0.584185 0.646581
164 1 0.572221 0.595417 0.653181
161 1 0.581615 0.614527 0.677322
156 1 0.567162 0.614301 0.671488
160 1 0.554063 0.593978 0.669353
158 1 0.56608 0.600133 0.664887
120 2 0.574082 0.571872 0.666494
92 1 0.580625 0.568605 0.672496
159 1 0.548278 0.602524 0.680379
157 1 0.55615 0.614514 0.681919
108 1 0.606818 0.586339 0.626981
104 1 0.593637 0.580531 0.625746
88 1 0.600409 0.556814 0.678605
175 1 0.605393 0.614917 0.675471
203 2 0.614443 0.615654 0.669409
179 1 0.606567 0.608947 0.688274
100 1 0.581233 0.57491 0.685138
128 2 0.576085 0.584017 0.686682
167 1 0.592355 0.617605 0.669429
195 2 0.590503 0.621612 0.660124
94 1 0.599568 0.56089 0.691874
102 1 0.590497 0.571203 0.694567
136 2 0.626781 0.61203 0.618432
93 1 0.61518 0.538745 0.648051
126 2 0.615317 0.569163 0.656186
106 1 0.615209 0.580791 0.636751
95 1 0.620383 0.538923 0.676113
134 2 0.624727 0.583724 0.638956
185 1 0.649869 0.588671 0.665268
212 2 0.619508 0.584323 0.677207
152 3 0.635721 0.586336 0.665418
183 1 0.630219 0.588182 0.679233
211 2 0.633413 0.58163 0.686843
181 1 0.631214 0.602748 0.685086
207 2 0.633024 0.609744 0.676853
154 3 0.656912 0.596822 0.672239
208 2 0.639625 0.60344 0.691154
187 1 0.655882 0.578796 0.654833
215 2 0.649518 0.572742 0.649848
189 1 0.66914 0.578062 0.65404
218 2 0.673341 0.571337 0.64616
217 2 0.676646 0.585488 0.658676
184 1 0.563293 0.663977 0.619745
213 2 0.571664 0.661918 0.625937
169 1 0.582661 0.608421 0.69024
206 2 0.536978 0.645549 0.656202
198 2 0.545873 0.629899 0.671862
209 2 0.556764 0.644281 0.61438
182 1 0.552554 0.652565 0.619243
210 2 0.544421 0.65588 0.612997
151 3 0.545904 0.649611 0.632728
170 1 0.551508 0.631941 0.663514
162 1 0.563953 0.625443 0.662146
178 1 0.545675 0.640076 0.65455
196 2 0.580369 0.623915 0.647185
168 1 0.570191 0.627764 0.649443
180 1 0.552279 0.641065 0.641796
204 2 0.569296 0.634148 0.629154
176 1 0.564356 0.634127 0.63876
193 2 0.529133 0.592635 0.686735
165 1 0.536323 0.601145 0.687916
122 2 0.605998 0.559021 0.700132
130 2 0.591195 0.576388 0.704313
201 2 0.527009 0.606812 0.706199
173 1 0.534845 0.609701 0.698935
150 3 0.619354 0.605835 0.693889
197 2 0.57356 0.606257 0.696215
177 1 0.594701 0.606454 0.696199
205 2 0.595463 0.600907 0.705361
163 1 0.555371 0.622747 0.693489
191 2 0.56322 0.63083 0.693477
171 1 0.543977 0.620186 0.701667
199 2 0.542936 0.626221 0.710619
