ITEM: TIMESTEP
980000
ITEM: NUMBER OF ATOMS
220
ITEM: BOX BOUNDS ff ff ff
-5.0000000000000000e+01 5.0000000000000000e+01
-5.0000000000000000e+01 5.0000000000000000e+01
-5.0000000000000000e+01 5.0000000000000000e+01
ITEM: ATOMS id type xs ys zs
202 2 0.55869 0.534313 0.602107
130 2 0.551631 0.54116 0.536748
200 2 0.537809 0.527213 0.611627
122 2 0.538095 0.539865 0.558559
102 1 0.554559 0.547023 0.545463
131 2 0.51708 0.557342 0.600514
60 1 0.506537 0.636223 0.598618
78 2 0.510321 0.643223 0.592042
123 2 0.525041 0.548104 0.580367
95 1 0.532311 0.553076 0.585905
103 1 0.52778 0.5595 0.597653
54 1 0.528874 0.627946 0.602863
174 1 0.555022 0.539537 0.610987
88 1 0.551224 0.555097 0.567525
89 1 0.544994 0.557276 0.581198
85 1 0.566082 0.5709 0.58119
87 1 0.552612 0.566838 0.588039
101 1 0.535484 0.568509 0.60563
93 1 0.548405 0.57139 0.600813
91 1 0.578005 0.568527 0.590362
86 1 0.563704 0.562026 0.56823
124 2 0.54417 0.587203 0.578079
94 1 0.5469 0.546332 0.557425
90 1 0.565647 0.585235 0.575514
96 1 0.552929 0.591757 0.574154
127 2 0.578265 0.547762 0.585215
99 1 0.582939 0.55577 0.591617
126 2 0.587013 0.587304 0.569033
92 1 0.570345 0.562855 0.555903
100 1 0.565028 0.556649 0.544508
125 2 0.583217 0.590156 0.591348
120 2 0.578547 0.569188 0.554224
98 1 0.577101 0.591771 0.569903
121 2 0.555324 0.577788 0.606391
97 1 0.58396 0.580053 0.596178
107 1 0.592292 0.553132 0.601547
104 1 0.551176 0.60394 0.567034
106 1 0.575367 0.604356 0.563713
128 2 0.568762 0.557697 0.534916
135 2 0.595964 0.543064 0.603893
194 2 0.574161 0.549169 0.613134
134 2 0.584125 0.610107 0.559408
108 1 0.562631 0.61035 0.561964
59 1 0.606721 0.621897 0.583928
38 2 0.613383 0.577563 0.578617
39 2 0.617372 0.576039 0.596231
56 1 0.594849 0.616691 0.586081
75 2 0.610034 0.62572 0.574429
105 1 0.593851 0.577817 0.605504
109 1 0.597039 0.564333 0.608573
133 2 0.5998 0.586781 0.609209
53 1 0.591338 0.612425 0.600792
76 2 0.613547 0.622609 0.5929
45 3 0.599937 0.612838 0.610421
21 1 0.620808 0.579405 0.586533
33 2 0.635995 0.589521 0.575603
18 1 0.632025 0.587512 0.585304
7 3 0.635357 0.587481 0.609989
15 1 0.640551 0.590622 0.598367
24 2 0.684183 0.607568 0.620061
11 1 0.661547 0.59599 0.61004
23 2 0.676068 0.615423 0.597178
9 1 0.666701 0.617849 0.602947
8 1 0.663856 0.609564 0.615055
3 3 0.652961 0.596298 0.596534
27 2 0.67094 0.592177 0.607418
26 2 0.657168 0.58914 0.616837
138 2 0.610636 0.547042 0.610043
46 3 0.534015 0.635961 0.593902
132 2 0.541807 0.608742 0.566544
137 2 0.546132 0.630114 0.567184
136 2 0.555835 0.642641 0.558519
110 1 0.556475 0.633912 0.56537
79 3 0.564146 0.624149 0.557395
112 1 0.563051 0.636247 0.579489
67 2 0.547702 0.646616 0.590941
81 3 0.555832 0.647624 0.584665
141 2 0.57363 0.637162 0.579286
140 2 0.560505 0.627724 0.585611
65 2 0.548786 0.605134 0.605818
66 2 0.553328 0.622068 0.600429
70 2 0.591591 0.644942 0.587575
58 1 0.606734 0.650093 0.59994
74 2 0.611479 0.64899 0.609638
55 1 0.594112 0.645693 0.598038
52 1 0.583863 0.64197 0.608916
40 3 0.572072 0.634969 0.606097
71 2 0.589643 0.615029 0.577567
73 2 0.612656 0.654932 0.591514
41 3 0.577656 0.609618 0.601433
50 1 0.549755 0.615683 0.608986
1 3 0.668383 0.632286 0.607399
13 1 0.681673 0.637496 0.606196
16 1 0.683751 0.651985 0.609383
31 2 0.674779 0.657906 0.611022
5 3 0.693828 0.632248 0.6035
35 2 0.704409 0.651561 0.612853
22 2 0.658371 0.616882 0.596733
34 2 0.695538 0.66813 0.613881
19 1 0.69509 0.657476 0.612496
206 2 0.528251 0.523446 0.675504
192 2 0.530413 0.537343 0.633523
198 2 0.527085 0.541425 0.658535
170 1 0.536097 0.538609 0.663058
210 2 0.535375 0.507632 0.68124
190 1 0.592726 0.489878 0.663672
188 1 0.579803 0.485891 0.664582
220 2 0.597823 0.489172 0.654333
216 2 0.574684 0.479862 0.656566
172 1 0.542678 0.535714 0.616112
219 2 0.597201 0.494846 0.672097
153 3 0.557275 0.487901 0.675503
186 1 0.571574 0.490975 0.676573
214 2 0.555825 0.490268 0.696117
155 3 0.577168 0.499563 0.68404
184 1 0.549466 0.491903 0.68759
149 2 0.558503 0.512912 0.64587
119 1 0.568483 0.515653 0.647106
148 2 0.574714 0.507089 0.648783
180 1 0.550723 0.525471 0.678114
117 1 0.573427 0.526716 0.642398
145 2 0.566681 0.533735 0.638119
213 2 0.542003 0.48414 0.687398
204 2 0.571715 0.527681 0.675259
115 1 0.588834 0.529491 0.641596
164 1 0.538631 0.541982 0.628087
151 3 0.553036 0.515557 0.688579
178 1 0.538006 0.528698 0.672758
176 1 0.561625 0.532011 0.672612
182 1 0.54245 0.505528 0.688972
82 3 0.592448 0.540677 0.633717
209 2 0.53792 0.505435 0.699005
113 1 0.607058 0.538639 0.630059
143 2 0.607252 0.528543 0.625566
77 2 0.495839 0.635938 0.599412
57 1 0.51397 0.627515 0.605243
72 2 0.509122 0.619985 0.61197
203 2 0.503882 0.56818 0.63136
211 2 0.488866 0.617443 0.644909
150 3 0.496804 0.587688 0.647673
175 1 0.511281 0.57025 0.639108
183 1 0.484463 0.6107 0.652129
207 2 0.490428 0.597741 0.66524
181 1 0.495006 0.600033 0.656108
179 1 0.509172 0.581011 0.648095
212 2 0.475393 0.607359 0.647922
208 2 0.50444 0.604913 0.657364
205 2 0.520308 0.593522 0.66133
177 1 0.520353 0.584018 0.656582
169 1 0.531194 0.575075 0.65784
167 1 0.522776 0.562092 0.638732
195 2 0.524014 0.554629 0.630747
197 2 0.538926 0.577544 0.664822
161 1 0.532315 0.563839 0.649297
129 2 0.532803 0.572848 0.615193
166 1 0.564447 0.547763 0.617103
42 3 0.534649 0.617903 0.611177
84 3 0.595796 0.519466 0.645679
146 2 0.537932 0.596445 0.637883
147 2 0.548963 0.590317 0.624623
118 1 0.546621 0.597629 0.632366
160 1 0.559988 0.554987 0.628476
158 1 0.547684 0.550514 0.634429
168 1 0.560473 0.542563 0.66309
196 2 0.570382 0.546054 0.659047
191 2 0.555719 0.577339 0.666506
163 1 0.562219 0.575655 0.658716
157 1 0.559053 0.566329 0.648574
159 1 0.568027 0.563158 0.638218
162 1 0.547712 0.546278 0.659677
156 1 0.546177 0.55667 0.648205
165 1 0.579685 0.571294 0.636362
193 2 0.586054 0.570323 0.627957
171 1 0.574961 0.581951 0.658227
173 1 0.583926 0.578909 0.647315
199 2 0.578809 0.588841 0.665719
201 2 0.593809 0.583981 0.64671
64 2 0.569983 0.598038 0.615882
80 3 0.603992 0.562627 0.621101
142 2 0.612993 0.537079 0.639308
10 1 0.674963 0.610502 0.625265
25 2 0.677649 0.620568 0.628541
2 3 0.673806 0.602606 0.638028
6 3 0.693073 0.588999 0.630094
28 2 0.656168 0.624621 0.629759
12 1 0.652714 0.616283 0.623237
29 2 0.64828 0.609217 0.63082
4 3 0.641758 0.621073 0.614434
30 2 0.636493 0.61487 0.610566
139 2 0.621132 0.551723 0.624086
111 1 0.61133 0.550113 0.620463
14 1 0.684731 0.593295 0.638797
17 1 0.685171 0.589334 0.653777
32 2 0.679193 0.595584 0.661021
20 1 0.692756 0.579495 0.657582
36 2 0.69299 0.577467 0.668677
37 2 0.698704 0.57272 0.651604
217 2 0.44995 0.646638 0.664178
43 3 0.539523 0.61832 0.65116
69 2 0.536338 0.626959 0.655133
152 3 0.48049 0.619768 0.663645
154 3 0.46317 0.629696 0.649748
185 1 0.469797 0.628374 0.660798
215 2 0.470618 0.633925 0.682652
187 1 0.465114 0.635406 0.673666
189 1 0.454696 0.643804 0.67346
218 2 0.452063 0.649369 0.681809
83 3 0.549242 0.637552 0.640797
49 1 0.571907 0.60853 0.615747
114 1 0.547115 0.624799 0.641233
68 2 0.555734 0.601438 0.651944
51 1 0.553529 0.613172 0.632324
116 1 0.557816 0.601236 0.640749
144 2 0.567557 0.596865 0.63831
63 2 0.579411 0.60999 0.623109
44 3 0.587743 0.647138 0.620401
61 2 0.57248 0.633403 0.627184
62 2 0.557098 0.637836 0.621319
48 1 0.565509 0.631091 0.619096
47 1 0.560239 0.616886 0.619311
