ITEM: TIMESTEP
155000
ITEM: NUMBER OF ATOMS
220
ITEM: BOX BOUNDS ff ff ff
-5.0000000000000000e+01 5.0000000000000000e+01
-5.0000000000000000e+01 5.0000000000000000e+01
-5.0000000000000000e+01 5.0000000000000000e+01
ITEM: ATOMS id type xs ys zs
33 2 0.557629 0.577293 0.536113
38 2 0.565479 0.593194 0.518597
21 1 0.560706 0.596514 0.527627
18 1 0.555703 0.588088 0.536779
39 2 0.559042 0.607046 0.528265
219 2 0.535946 0.540395 0.608099
35 2 0.562138 0.522895 0.583804
34 2 0.578393 0.528276 0.590831
19 1 0.569032 0.530942 0.586395
4 3 0.52248 0.573798 0.602019
30 2 0.515933 0.581165 0.60391
25 2 0.509379 0.574295 0.582287
10 1 0.515084 0.5799 0.574925
24 2 0.513291 0.575113 0.565251
6 3 0.508865 0.595475 0.598885
2 3 0.509978 0.59353 0.573954
14 1 0.507796 0.599879 0.58671
8 1 0.530327 0.578609 0.578322
28 2 0.533752 0.590324 0.596342
12 1 0.532806 0.579747 0.593883
17 1 0.504192 0.614351 0.584566
23 2 0.528321 0.556986 0.579882
27 2 0.531918 0.598119 0.567803
9 1 0.534745 0.563981 0.574857
11 1 0.538383 0.589678 0.570511
22 2 0.533836 0.561306 0.564389
3 3 0.544648 0.583753 0.558291
37 2 0.502883 0.617782 0.605596
70 2 0.522581 0.617491 0.581053
40 3 0.540636 0.613158 0.598887
7 3 0.546241 0.606553 0.549829
29 2 0.5423 0.574891 0.596637
190 1 0.544472 0.545379 0.612278
220 2 0.54834 0.553746 0.606731
5 3 0.543025 0.537424 0.576587
13 1 0.551233 0.547041 0.579351
1 3 0.548869 0.561127 0.578854
15 1 0.548012 0.593912 0.548763
26 2 0.546508 0.59341 0.576535
183 1 0.573477 0.586253 0.580036
207 2 0.569027 0.570614 0.59449
211 2 0.583801 0.583828 0.578103
212 2 0.568083 0.581026 0.572153
208 2 0.559487 0.584704 0.597115
181 1 0.569444 0.581597 0.594136
150 3 0.578135 0.586832 0.605126
61 2 0.556623 0.602018 0.606455
152 3 0.571135 0.600733 0.577291
154 3 0.583184 0.59621 0.556374
185 1 0.57634 0.603759 0.564315
48 1 0.552574 0.611992 0.608226
16 1 0.565235 0.543823 0.585093
31 2 0.571637 0.551758 0.588241
128 2 0.58759 0.557481 0.599893
130 2 0.57424 0.54197 0.613276
120 2 0.607291 0.56974 0.609752
100 1 0.590481 0.555995 0.610246
92 1 0.601428 0.562969 0.615862
62 2 0.559898 0.619329 0.605369
102 1 0.582535 0.547125 0.618074
205 2 0.557091 0.569767 0.614716
217 2 0.580025 0.61522 0.540802
187 1 0.572545 0.617878 0.560281
138 2 0.671984 0.58305 0.614357
82 3 0.687953 0.572647 0.593207
113 1 0.68996 0.571562 0.608229
133 2 0.646481 0.549114 0.607871
145 2 0.69066 0.571333 0.566663
149 2 0.712216 0.572631 0.554187
119 1 0.711794 0.571861 0.564912
117 1 0.700169 0.571467 0.57174
115 1 0.700722 0.571907 0.587041
148 2 0.721086 0.572029 0.570521
84 3 0.712121 0.571423 0.593091
143 2 0.697623 0.578851 0.611214
142 2 0.694405 0.56189 0.610496
32 2 0.503647 0.6184 0.574595
20 1 0.502131 0.621892 0.595501
36 2 0.500125 0.632328 0.594729
73 2 0.524588 0.631873 0.560457
55 1 0.531356 0.623044 0.57849
58 1 0.532239 0.630844 0.567767
147 2 0.524504 0.629464 0.618142
146 2 0.53248 0.645803 0.618201
74 2 0.54102 0.636293 0.565652
52 1 0.543041 0.622195 0.588338
218 2 0.572318 0.631548 0.544382
189 1 0.575053 0.621719 0.547782
44 3 0.553327 0.629946 0.58663
215 2 0.567474 0.624203 0.566904
155 3 0.532861 0.523659 0.627281
213 2 0.534795 0.518866 0.652949
186 1 0.543991 0.529237 0.631058
184 1 0.545097 0.516015 0.651167
214 2 0.544113 0.506749 0.645851
210 2 0.549734 0.50478 0.669744
151 3 0.54886 0.524737 0.674455
153 3 0.551977 0.526159 0.642519
182 1 0.552484 0.514144 0.664411
206 2 0.56885 0.531916 0.656189
209 2 0.563315 0.513948 0.66266
123 2 0.58968 0.53548 0.660865
122 2 0.579589 0.537789 0.637513
131 2 0.602007 0.538295 0.682766
65 2 0.528537 0.608296 0.617635
57 1 0.527083 0.56905 0.628694
60 1 0.516401 0.561762 0.632285
54 1 0.526414 0.584334 0.628913
78 2 0.50693 0.566757 0.634276
46 3 0.515038 0.589448 0.632839
199 2 0.522358 0.600733 0.657378
77 2 0.516838 0.550927 0.632412
171 1 0.53216 0.59986 0.661861
66 2 0.531859 0.608733 0.634636
50 1 0.536217 0.60625 0.625147
72 2 0.536307 0.563945 0.625691
173 1 0.536584 0.609616 0.671108
204 2 0.541035 0.546466 0.686267
191 2 0.537023 0.581753 0.650778
180 1 0.553978 0.537586 0.671043
42 3 0.537934 0.591151 0.624568
188 1 0.549805 0.541525 0.6239
216 2 0.558184 0.546712 0.628369
178 1 0.563729 0.540238 0.661145
176 1 0.54808 0.54849 0.678199
179 1 0.573999 0.582742 0.618182
196 2 0.546222 0.569934 0.6797
63 2 0.56061 0.598681 0.632773
163 1 0.540574 0.589344 0.657972
165 1 0.548987 0.608618 0.677701
197 2 0.551225 0.567086 0.638894
203 2 0.591015 0.593705 0.625518
175 1 0.582377 0.588204 0.628229
177 1 0.563011 0.574699 0.622155
169 1 0.560099 0.572484 0.635872
198 2 0.575358 0.555112 0.651043
157 1 0.553593 0.588643 0.663218
170 1 0.567445 0.55332 0.658248
159 1 0.557678 0.59833 0.673177
168 1 0.551101 0.561733 0.674576
161 1 0.568561 0.578406 0.645696
156 1 0.564475 0.578365 0.660318
158 1 0.575664 0.583313 0.669579
160 1 0.571379 0.594792 0.67723
162 1 0.560459 0.564069 0.664204
164 1 0.588507 0.578047 0.671147
167 1 0.579971 0.585778 0.641695
172 1 0.597036 0.58372 0.681169
192 2 0.591486 0.569309 0.665429
195 2 0.58638 0.590146 0.649022
200 2 0.606699 0.578613 0.682799
94 1 0.585448 0.544662 0.631626
88 1 0.596347 0.551923 0.637351
104 1 0.610636 0.602385 0.653655
86 1 0.604204 0.561134 0.629642
132 2 0.608735 0.606496 0.663407
49 1 0.559951 0.609283 0.63108
64 2 0.569644 0.612136 0.626623
166 1 0.580159 0.600285 0.687067
47 1 0.548651 0.61408 0.62255
174 1 0.592876 0.594569 0.688966
96 1 0.611339 0.588549 0.652133
124 2 0.610506 0.582544 0.661258
89 1 0.601824 0.551459 0.651121
95 1 0.597816 0.54279 0.661837
103 1 0.604759 0.544361 0.673974
108 1 0.611187 0.61045 0.642183
106 1 0.61322 0.604975 0.629321
87 1 0.61293 0.560374 0.651633
90 1 0.61349 0.582664 0.639442
85 1 0.615062 0.567551 0.638267
45 3 0.582644 0.613335 0.645218
134 2 0.61374 0.61124 0.620447
80 3 0.667308 0.562342 0.614189
98 1 0.614492 0.590895 0.627897
111 1 0.677004 0.573489 0.616343
105 1 0.64448 0.555814 0.616168
139 2 0.679574 0.573764 0.626929
126 2 0.616151 0.586804 0.618235
109 1 0.654782 0.564299 0.620784
125 2 0.624095 0.549518 0.618167
91 1 0.62881 0.565689 0.631839
97 1 0.63159 0.556044 0.621752
99 1 0.639111 0.573906 0.636847
107 1 0.652189 0.573444 0.631434
121 2 0.629489 0.5665 0.664863
127 2 0.636977 0.580969 0.644892
135 2 0.660212 0.579812 0.635016
93 1 0.620341 0.560853 0.663661
101 1 0.615904 0.553161 0.674798
129 2 0.621102 0.554003 0.684385
118 1 0.532393 0.635835 0.622215
201 2 0.530488 0.618191 0.67326
144 2 0.531424 0.626713 0.642347
116 1 0.536316 0.634033 0.636416
68 2 0.538922 0.642928 0.642102
193 2 0.551914 0.615904 0.685332
83 3 0.569702 0.633334 0.618222
41 3 0.558579 0.615887 0.64479
141 2 0.599368 0.6527 0.628762
69 2 0.565 0.656458 0.629366
43 3 0.556777 0.65156 0.627741
114 1 0.558805 0.638218 0.622859
53 1 0.571526 0.617598 0.650293
76 2 0.59314 0.627798 0.662412
56 1 0.57179 0.626568 0.66284
59 1 0.583886 0.630372 0.667284
71 2 0.562737 0.629744 0.667956
75 2 0.584364 0.636562 0.676253
51 1 0.546541 0.629135 0.625224
137 2 0.598365 0.627064 0.628452
79 3 0.609001 0.624216 0.645986
67 2 0.579687 0.642078 0.640509
110 1 0.605747 0.632625 0.634297
81 3 0.587346 0.645797 0.644571
112 1 0.600224 0.646758 0.637934
140 2 0.607043 0.65194 0.644458
136 2 0.61435 0.634035 0.627625
194 2 0.577387 0.608812 0.692912
202 2 0.599495 0.59857 0.696447
