ITEM: TIMESTEP
1485000
ITEM: NUMBER OF ATOMS
59
ITEM: BOX BOUNDS ff ff ff
-5.0000000000000000e+01 5.0000000000000000e+01
-5.0000000000000000e+01 5.0000000000000000e+01
-5.0000000000000000e+01 5.0000000000000000e+01
ITEM: ATOMS id type xs ys zs
150 3 0.797988 0.348641 0.00508021
58 1 0.592337 0.18429 0.443036
209 2 0.741195 0.741739 0.10775
210 2 0.725899 0.740174 0.117596
182 1 0.735624 0.736442 0.115607
184 1 0.741117 0.72626 0.122458
213 2 0.735609 0.721118 0.130317
214 2 0.751022 0.722604 0.120659
145 2 0.986108 0.87976 0.281247
119 1 0.967331 0.871102 0.282545
117 1 0.975206 0.880175 0.281015
149 2 0.959861 0.867725 0.275818
115 1 0.965872 0.881935 0.292873
84 3 0.95923 0.888695 0.301307
118 1 0.585578 0.231189 0.37867
116 1 0.571944 0.234393 0.382854
68 2 0.569707 0.243357 0.377658
144 2 0.564434 0.225475 0.385976
146 2 0.591437 0.235871 0.37173
147 2 0.589339 0.220939 0.37973
72 2 0.415955 0.0155725 0.411288
57 1 0.427159 0.00854552 0.404952
162 1 0.381448 0.0694355 0.510052
54 1 0.36042 0.180008 0.49857
83 3 0.584516 0.25964 0.387232
51 1 0.585321 0.236464 0.392791
61 2 0.589987 0.23205 0.419916
47 1 0.587984 0.223331 0.401572
49 1 0.584007 0.211297 0.400376
63 2 0.575605 0.208265 0.39453
69 2 0.5942 0.262984 0.4099
114 1 0.587703 0.250754 0.396319
43 3 0.590762 0.253761 0.41031
71 2 0.649028 0.0844724 0.382017
75 2 0.653959 0.0648181 0.392167
41 3 0.664016 0.0740338 0.351531
56 1 0.655133 0.0771332 0.376972
53 1 0.664569 0.080112 0.363072
45 3 0.671528 0.0902536 0.367545
59 1 0.656381 0.0652852 0.382042
76 2 0.66232 0.0577786 0.377213
42 3 0.51379 0.396449 0.413217
44 3 0.58353 0.206308 0.431651
70 2 0.60939 0.18557 0.429485
55 1 0.600602 0.190021 0.433497
52 1 0.595624 0.203124 0.428124
40 3 0.603484 0.21179 0.420194
48 1 0.595866 0.224552 0.414633
62 2 0.605201 0.229364 0.413161
64 2 0.589263 0.202325 0.405702
50 1 0.504053 0.405832 0.414289
65 2 0.504701 0.414096 0.418785
66 2 0.494267 0.399778 0.413309
77 2 0.28946 0.0980879 0.327758
60 1 0.390398 0.0614815 0.508327
78 2 0.377454 0.0590731 0.508787
46 3 0.368363 0.184734 0.504634
74 2 0.584178 0.190238 0.446269
73 2 0.592539 0.174546 0.445039
