ITEM: TIMESTEP
240000
ITEM: NUMBER OF ATOMS
220
ITEM: BOX BOUNDS ff ff ff
-5.0000000000000000e+01 5.0000000000000000e+01
-5.0000000000000000e+01 5.0000000000000000e+01
-5.0000000000000000e+01 5.0000000000000000e+01
ITEM: ATOMS id type xs ys zs
21 1 0.516068 0.618527 0.517466
33 2 0.506931 0.601558 0.5267
18 1 0.515246 0.608344 0.526606
38 2 0.508478 0.6195 0.509887
217 2 0.567205 0.599562 0.538398
39 2 0.524475 0.625159 0.517402
35 2 0.553684 0.535511 0.536613
149 2 0.712459 0.539076 0.566253
119 1 0.7122 0.540055 0.576978
7 3 0.535206 0.61602 0.537697
15 1 0.52571 0.607252 0.537494
25 2 0.514526 0.576944 0.580636
10 1 0.516285 0.586575 0.575444
24 2 0.508489 0.586792 0.56771
6 3 0.507802 0.580626 0.601932
2 3 0.513714 0.597602 0.584497
14 1 0.508788 0.592646 0.59762
8 1 0.530598 0.586008 0.569282
17 1 0.505859 0.604623 0.606539
23 2 0.530267 0.56305 0.568068
9 1 0.532398 0.572102 0.561663
22 2 0.52511 0.571596 0.553622
11 1 0.532247 0.597228 0.558489
3 3 0.522542 0.597284 0.547328
27 2 0.531775 0.606926 0.563449
30 2 0.533974 0.579163 0.597479
32 2 0.506631 0.6146 0.603124
40 3 0.535031 0.618682 0.599809
34 2 0.570558 0.539792 0.531225
19 1 0.561478 0.542737 0.536401
219 2 0.553631 0.532601 0.604586
5 3 0.536647 0.548281 0.547114
4 3 0.539907 0.576378 0.590531
28 2 0.539726 0.596954 0.584652
26 2 0.542173 0.597254 0.554899
12 1 0.541356 0.587018 0.580834
29 2 0.551371 0.586531 0.576537
190 1 0.55731 0.541022 0.610342
220 2 0.561309 0.549275 0.60497
13 1 0.546141 0.556736 0.549003
1 3 0.545458 0.569912 0.55518
183 1 0.577757 0.578878 0.582712
207 2 0.57702 0.565235 0.599996
211 2 0.588209 0.577481 0.580142
212 2 0.572363 0.571408 0.576341
208 2 0.565005 0.576939 0.600465
181 1 0.575392 0.575786 0.597646
150 3 0.582933 0.584352 0.607219
61 2 0.550398 0.604937 0.604386
152 3 0.573902 0.592724 0.578579
154 3 0.576573 0.583647 0.556154
185 1 0.573214 0.593101 0.564176
16 1 0.560026 0.554419 0.542925
31 2 0.567486 0.56238 0.543185
128 2 0.594889 0.553704 0.606169
100 1 0.596614 0.554201 0.616731
187 1 0.566739 0.605629 0.558588
48 1 0.546972 0.614695 0.608081
130 2 0.58186 0.538886 0.621477
189 1 0.564456 0.607072 0.545587
215 2 0.563406 0.613526 0.564806
82 3 0.692803 0.556023 0.603477
145 2 0.694393 0.551583 0.577498
113 1 0.693559 0.556359 0.61832
138 2 0.679701 0.573084 0.61939
148 2 0.720135 0.535368 0.582723
117 1 0.702678 0.546952 0.583159
115 1 0.703455 0.548061 0.598312
84 3 0.713482 0.543071 0.604854
143 2 0.702384 0.562089 0.621083
70 2 0.515908 0.624772 0.582057
73 2 0.517858 0.63205 0.559716
55 1 0.525768 0.625622 0.577928
58 1 0.526831 0.629968 0.565382
74 2 0.53637 0.631179 0.560605
218 2 0.55959 0.615544 0.541489
62 2 0.555219 0.621453 0.605306
52 1 0.538161 0.622508 0.586504
44 3 0.549766 0.622677 0.580696
213 2 0.536225 0.521417 0.655679
155 3 0.545821 0.519601 0.62527
151 3 0.552259 0.527491 0.678256
214 2 0.547388 0.510426 0.648021
184 1 0.547144 0.519428 0.654242
210 2 0.550679 0.50816 0.671885
186 1 0.551258 0.529196 0.631923
153 3 0.55306 0.530885 0.645942
182 1 0.554107 0.517257 0.667734
206 2 0.572227 0.534443 0.662535
209 2 0.565094 0.516441 0.666669
20 1 0.502449 0.602049 0.619192
65 2 0.526815 0.606298 0.620872
37 2 0.501384 0.591915 0.622629
57 1 0.535247 0.565227 0.625653
60 1 0.529126 0.554828 0.631455
54 1 0.530107 0.579567 0.628085
78 2 0.520461 0.556538 0.63813
46 3 0.520045 0.581189 0.636095
199 2 0.521831 0.600486 0.655747
77 2 0.531988 0.544961 0.629698
66 2 0.533244 0.60299 0.636957
50 1 0.535648 0.603446 0.626225
171 1 0.53123 0.600266 0.661545
204 2 0.538491 0.549367 0.685201
42 3 0.538997 0.589094 0.622256
36 2 0.499119 0.610171 0.625781
173 1 0.533997 0.610216 0.671452
120 2 0.61148 0.569779 0.61475
188 1 0.556969 0.541032 0.623869
72 2 0.543199 0.56322 0.618518
102 1 0.589379 0.54547 0.625354
92 1 0.606167 0.563419 0.621554
205 2 0.561768 0.569755 0.6171
122 2 0.584967 0.541178 0.646024
123 2 0.592742 0.545591 0.671254
131 2 0.605683 0.55085 0.691505
180 1 0.555575 0.541013 0.674437
191 2 0.538643 0.58246 0.650721
216 2 0.561274 0.549341 0.62917
178 1 0.566975 0.543113 0.666339
176 1 0.547439 0.551478 0.679423
179 1 0.578747 0.582332 0.620744
196 2 0.544286 0.572707 0.678774
63 2 0.559867 0.597366 0.627522
163 1 0.540798 0.590515 0.657789
165 1 0.546109 0.609971 0.67837
197 2 0.554808 0.568366 0.641224
203 2 0.594408 0.595488 0.627365
175 1 0.586147 0.589802 0.630419
177 1 0.567252 0.575131 0.624574
169 1 0.563261 0.573801 0.638166
198 2 0.577994 0.558601 0.656082
157 1 0.553364 0.591138 0.663923
170 1 0.569958 0.556402 0.66265
159 1 0.556013 0.600759 0.6742
168 1 0.550515 0.5645 0.675534
161 1 0.570665 0.580947 0.647682
156 1 0.565121 0.581225 0.662485
158 1 0.575669 0.587755 0.671795
160 1 0.569588 0.59815 0.679419
162 1 0.56164 0.566849 0.667174
164 1 0.589048 0.583813 0.673427
167 1 0.581983 0.588562 0.643862
172 1 0.596014 0.590586 0.68387
192 2 0.593329 0.575331 0.667839
195 2 0.587583 0.593993 0.651165
200 2 0.60656 0.588274 0.685055
94 1 0.590996 0.54642 0.639383
88 1 0.60112 0.555257 0.644294
104 1 0.611473 0.60824 0.651177
86 1 0.608455 0.564005 0.635546
132 2 0.609828 0.614173 0.660148
49 1 0.55919 0.608451 0.628386
64 2 0.56846 0.612033 0.62355
166 1 0.576938 0.605097 0.689753
89 1 0.605556 0.55797 0.658385
95 1 0.601268 0.552093 0.670879
103 1 0.608154 0.55592 0.682201
124 2 0.612388 0.589968 0.662447
96 1 0.613249 0.594502 0.652756
87 1 0.61668 0.566871 0.657709
90 1 0.616545 0.586877 0.641263
101 1 0.619358 0.564993 0.681598
47 1 0.546126 0.613636 0.62304
41 3 0.560372 0.612629 0.642858
133 2 0.649799 0.542041 0.624429
106 1 0.615843 0.607381 0.627412
98 1 0.618014 0.593434 0.628904
126 2 0.6206 0.587323 0.620172
80 3 0.669379 0.555052 0.622169
111 1 0.681344 0.563625 0.624349
85 1 0.618942 0.571911 0.643239
105 1 0.647986 0.551544 0.628154
139 2 0.682584 0.566062 0.634891
109 1 0.657871 0.561262 0.628071
125 2 0.628048 0.546732 0.633507
91 1 0.633003 0.567593 0.63801
97 1 0.635652 0.554519 0.633689
99 1 0.643008 0.577348 0.638074
107 1 0.655922 0.574285 0.632926
121 2 0.63282 0.576723 0.66921
127 2 0.641048 0.587598 0.64187
135 2 0.663543 0.581848 0.632282
93 1 0.623881 0.570417 0.669391
129 2 0.624021 0.567939 0.690997
142 2 0.694305 0.546247 0.621981
146 2 0.526691 0.643264 0.627731
147 2 0.520522 0.626282 0.624836
118 1 0.528368 0.632441 0.629142
144 2 0.530768 0.619137 0.646983
116 1 0.534625 0.628519 0.642065
201 2 0.526529 0.617664 0.67382
108 1 0.612482 0.614928 0.638833
68 2 0.536699 0.636369 0.649289
45 3 0.583586 0.617225 0.637248
83 3 0.564088 0.636707 0.619468
193 2 0.547569 0.616552 0.686891
69 2 0.560018 0.653509 0.639794
141 2 0.596269 0.653728 0.620367
43 3 0.551656 0.649562 0.636262
114 1 0.55397 0.638993 0.62703
53 1 0.573915 0.616202 0.64574
76 2 0.594018 0.629897 0.655566
56 1 0.575356 0.621527 0.659999
59 1 0.586924 0.627619 0.663016
71 2 0.568162 0.619193 0.66752
75 2 0.588531 0.631639 0.673203
51 1 0.543334 0.627405 0.62877
137 2 0.598017 0.628012 0.622927
79 3 0.61071 0.629219 0.639678
67 2 0.579089 0.641399 0.632363
110 1 0.605381 0.635003 0.627142
81 3 0.586283 0.645721 0.637296
112 1 0.598382 0.648492 0.629463
140 2 0.605157 0.654805 0.63566
134 2 0.617142 0.611837 0.617809
136 2 0.613112 0.636139 0.619647
174 1 0.590175 0.600919 0.691695
194 2 0.572395 0.613348 0.695316
202 2 0.59563 0.60537 0.69997
