ITEM: TIMESTEP
1105000
ITEM: NUMBER OF ATOMS
220
ITEM: BOX BOUNDS ff ff ff
-5.0000000000000000e+01 5.0000000000000000e+01
-5.0000000000000000e+01 5.0000000000000000e+01
-5.0000000000000000e+01 5.0000000000000000e+01
ITEM: ATOMS id type xs ys zs
34 2 0.600369 0.599625 0.511755
35 2 0.591723 0.58498 0.515809
19 1 0.598731 0.592278 0.518911
16 1 0.605831 0.591728 0.530437
31 2 0.613107 0.600062 0.531537
121 2 0.533517 0.528034 0.591798
129 2 0.519198 0.510953 0.582122
93 1 0.523324 0.527889 0.594937
101 1 0.514649 0.517895 0.589974
131 2 0.494913 0.509291 0.589502
103 1 0.50089 0.517545 0.592883
33 2 0.596104 0.536286 0.592543
18 1 0.606036 0.534719 0.595652
38 2 0.603007 0.51534 0.603947
21 1 0.609543 0.523899 0.602382
39 2 0.620302 0.523206 0.602449
149 2 0.518881 0.555198 0.56516
145 2 0.543397 0.54942 0.565088
148 2 0.524312 0.572135 0.565704
119 1 0.52761 0.561735 0.565921
117 1 0.540451 0.559106 0.564818
87 1 0.517336 0.537719 0.602979
89 1 0.503289 0.537301 0.605933
95 1 0.494352 0.52766 0.600378
174 1 0.519911 0.602244 0.595449
123 2 0.483618 0.527067 0.602906
84 3 0.548549 0.581612 0.558495
172 1 0.51701 0.596025 0.60838
99 1 0.531945 0.570333 0.599814
85 1 0.526004 0.547763 0.611712
127 2 0.521225 0.572871 0.601761
88 1 0.501495 0.547399 0.616761
94 1 0.488899 0.552996 0.620018
122 2 0.478695 0.548826 0.61654
115 1 0.551477 0.569597 0.56257
91 1 0.535823 0.557936 0.604397
125 2 0.551427 0.544209 0.603031
97 1 0.5491 0.554605 0.601247
135 2 0.537926 0.587251 0.588313
107 1 0.541054 0.579238 0.593897
143 2 0.569376 0.583369 0.561903
105 1 0.558963 0.56352 0.596223
109 1 0.555004 0.576609 0.592647
139 2 0.580246 0.57678 0.589559
133 2 0.569028 0.560921 0.593507
80 3 0.562514 0.5866 0.585675
111 1 0.575768 0.581904 0.581553
113 1 0.573503 0.575142 0.567572
138 2 0.582964 0.590172 0.580648
82 3 0.564038 0.563903 0.566458
142 2 0.583716 0.572922 0.564579
1 3 0.613448 0.581636 0.551582
13 1 0.603813 0.580778 0.540958
29 2 0.599938 0.577361 0.587923
22 2 0.599927 0.580072 0.565056
5 3 0.593301 0.57318 0.540654
9 1 0.609824 0.575401 0.564841
23 2 0.608363 0.564725 0.563232
4 3 0.605127 0.597645 0.585262
30 2 0.61272 0.604224 0.588047
12 1 0.608907 0.583874 0.587864
15 1 0.617908 0.544055 0.590949
7 3 0.630204 0.541356 0.594047
28 2 0.613291 0.582473 0.597034
8 1 0.618234 0.578859 0.576637
25 2 0.62452 0.598097 0.568583
3 3 0.612812 0.556251 0.586504
24 2 0.635218 0.584695 0.567104
6 3 0.644409 0.613565 0.57025
10 1 0.628655 0.589099 0.574109
2 3 0.637654 0.59575 0.585057
14 1 0.645716 0.606922 0.581485
32 2 0.657479 0.599479 0.599452
11 1 0.623887 0.566313 0.582502
26 2 0.631535 0.567208 0.59026
27 2 0.630048 0.561167 0.574544
17 1 0.656509 0.608133 0.592456
68 2 0.650973 0.609718 0.615609
202 2 0.511772 0.601128 0.587773
166 1 0.531979 0.608848 0.592808
194 2 0.532237 0.614283 0.58286
160 1 0.540417 0.610041 0.604517
83 3 0.611897 0.616724 0.611727
159 1 0.55364 0.617358 0.603894
165 1 0.560419 0.625053 0.593943
171 1 0.578547 0.62817 0.610491
193 2 0.555889 0.626742 0.584495
201 2 0.579987 0.633548 0.589939
173 1 0.573568 0.628936 0.597267
199 2 0.587069 0.633082 0.612428
69 2 0.641669 0.625845 0.608477
43 3 0.633085 0.626889 0.604171
37 2 0.665099 0.625585 0.584731
20 1 0.664929 0.617987 0.591968
36 2 0.672766 0.618434 0.599192
114 1 0.62393 0.620747 0.613255
146 2 0.64644 0.635051 0.621991
96 1 0.533857 0.526876 0.621409
132 2 0.540914 0.508232 0.630333
124 2 0.525263 0.522057 0.615623
104 1 0.541579 0.518957 0.629657
108 1 0.551729 0.524937 0.636894
79 3 0.559012 0.514556 0.644102
141 2 0.575503 0.497567 0.653898
140 2 0.576419 0.511992 0.663159
136 2 0.576705 0.512885 0.632354
110 1 0.573407 0.516171 0.641682
112 1 0.579813 0.50809 0.654351
106 1 0.554601 0.53884 0.636783
137 2 0.575892 0.526124 0.64166
81 3 0.594195 0.510123 0.6546
67 2 0.599266 0.518507 0.657523
200 2 0.506875 0.591557 0.609101
90 1 0.536164 0.540359 0.621135
164 1 0.524882 0.5978 0.619654
86 1 0.514086 0.554006 0.618816
92 1 0.514917 0.564468 0.628773
130 2 0.480685 0.571727 0.628033
102 1 0.489613 0.565294 0.627395
100 1 0.502148 0.570231 0.631544
192 2 0.522447 0.593439 0.628857
128 2 0.502043 0.579752 0.635782
120 2 0.523925 0.567966 0.632867
208 2 0.508049 0.629548 0.673573
158 1 0.537516 0.603988 0.617108
198 2 0.575126 0.601588 0.621648
206 2 0.585633 0.580149 0.627147
134 2 0.563811 0.541499 0.642139
214 2 0.597483 0.539424 0.646058
153 3 0.599159 0.55024 0.664364
213 2 0.609842 0.550625 0.646995
184 1 0.60003 0.549566 0.649591
98 1 0.546463 0.546769 0.628385
188 1 0.60863 0.544808 0.684543
186 1 0.608951 0.541167 0.669321
155 3 0.616283 0.531726 0.664834
204 2 0.551548 0.567713 0.650205
196 2 0.539724 0.586997 0.641411
126 2 0.549133 0.556401 0.625727
209 2 0.589145 0.557464 0.632849
182 1 0.589871 0.560014 0.643811
170 1 0.568903 0.59436 0.627365
156 1 0.548342 0.609085 0.626736
210 2 0.594509 0.569025 0.646639
178 1 0.575758 0.582151 0.630225
151 3 0.575597 0.560929 0.646006
180 1 0.57025 0.572344 0.638807
176 1 0.556735 0.574185 0.642349
168 1 0.549844 0.585805 0.639195
162 1 0.555883 0.596174 0.631299
66 2 0.60904 0.596013 0.642688
65 2 0.608929 0.601118 0.626964
161 1 0.542502 0.615349 0.639388
46 3 0.610319 0.577599 0.623184
78 2 0.616692 0.556479 0.620434
195 2 0.559005 0.609676 0.652627
167 1 0.549559 0.614762 0.651879
203 2 0.550785 0.620655 0.671954
175 1 0.545289 0.621056 0.662963
50 1 0.616344 0.600059 0.635651
72 2 0.639511 0.567667 0.637099
42 3 0.628046 0.590925 0.63338
60 1 0.624826 0.555382 0.62631
77 2 0.627876 0.545898 0.628859
57 1 0.630327 0.566492 0.63042
54 1 0.622608 0.578865 0.627721
144 2 0.649868 0.606476 0.633051
116 1 0.646227 0.61281 0.625075
61 2 0.639139 0.602464 0.647119
44 3 0.660518 0.606551 0.652775
62 2 0.62682 0.60374 0.65859
48 1 0.631458 0.609687 0.650877
47 1 0.623526 0.612721 0.638827
207 2 0.514275 0.645818 0.677474
181 1 0.515187 0.63491 0.679764
197 2 0.525757 0.621361 0.628989
205 2 0.514806 0.630197 0.650589
177 1 0.524569 0.627674 0.650892
212 2 0.516688 0.644391 0.697501
183 1 0.51245 0.635002 0.694581
157 1 0.557969 0.617857 0.617469
169 1 0.529617 0.620679 0.639585
191 2 0.573908 0.623314 0.63109
150 3 0.529486 0.630941 0.675867
45 3 0.590888 0.640074 0.641521
76 2 0.568773 0.643719 0.649925
163 1 0.570437 0.623127 0.621218
75 2 0.559901 0.633573 0.662759
59 1 0.567897 0.635015 0.655617
71 2 0.576913 0.615832 0.659664
179 1 0.532509 0.627479 0.662688
56 1 0.577378 0.625499 0.654465
53 1 0.590445 0.628513 0.647539
41 3 0.600223 0.617809 0.646102
51 1 0.631454 0.618121 0.62692
64 2 0.610611 0.630589 0.633545
63 2 0.617169 0.629023 0.650679
49 1 0.613381 0.623614 0.642206
147 2 0.64614 0.631315 0.63914
118 1 0.643869 0.62755 0.629488
52 1 0.653993 0.615633 0.659629
40 3 0.640485 0.618598 0.660007
55 1 0.665125 0.62332 0.667922
70 2 0.662263 0.630453 0.675131
58 1 0.678178 0.620144 0.666863
74 2 0.681006 0.611951 0.659418
73 2 0.685206 0.622658 0.674224
218 2 0.462231 0.643782 0.722248
215 2 0.472944 0.637525 0.70163
216 2 0.601143 0.551587 0.687799
190 1 0.616229 0.538369 0.692943
219 2 0.623417 0.531622 0.689536
220 2 0.616257 0.53908 0.70325
154 3 0.499948 0.643893 0.720126
217 2 0.478405 0.644691 0.73018
185 1 0.49301 0.640381 0.709615
189 1 0.472757 0.643982 0.721418
187 1 0.478244 0.641173 0.709646
152 3 0.497868 0.636211 0.696636
211 2 0.516098 0.62691 0.701203
