ITEM: TIMESTEP
735000
ITEM: NUMBER OF ATOMS
220
ITEM: BOX BOUNDS ff ff ff
-5.0000000000000000e+01 5.0000000000000000e+01
-5.0000000000000000e+01 5.0000000000000000e+01
-5.0000000000000000e+01 5.0000000000000000e+01
ITEM: ATOMS id type xs ys zs
33 2 0.502592 0.518911 0.58751
190 1 0.543636 0.461743 0.580251
219 2 0.532907 0.460886 0.579021
155 3 0.526687 0.483405 0.58401
186 1 0.539215 0.484477 0.585985
213 2 0.529697 0.505044 0.597334
184 1 0.53871 0.50137 0.602847
18 1 0.499835 0.516516 0.597884
38 2 0.488898 0.500096 0.592137
21 1 0.492685 0.505737 0.599947
15 1 0.504123 0.526687 0.60852
39 2 0.489077 0.502376 0.60976
214 2 0.535113 0.493216 0.609138
220 2 0.549162 0.452554 0.578459
188 1 0.549305 0.473184 0.583043
153 3 0.547169 0.494849 0.592304
216 2 0.559981 0.474257 0.583317
209 2 0.54776 0.519806 0.603596
182 1 0.545851 0.512718 0.610899
210 2 0.555614 0.508783 0.614434
206 2 0.562786 0.530319 0.614878
3 3 0.508354 0.539496 0.603685
9 1 0.512125 0.570708 0.603138
23 2 0.513636 0.568531 0.592018
25 2 0.530536 0.546859 0.601136
10 1 0.533031 0.55564 0.606571
77 2 0.537734 0.589027 0.595696
60 1 0.539741 0.596089 0.603208
1 3 0.517242 0.585008 0.604663
78 2 0.53868 0.593237 0.613471
22 2 0.501494 0.569346 0.605662
8 1 0.519843 0.561335 0.612842
13 1 0.506785 0.592657 0.610654
16 1 0.509449 0.607967 0.609727
31 2 0.518441 0.61161 0.604921
24 2 0.540143 0.552276 0.613823
2 3 0.53865 0.565016 0.596076
57 1 0.546656 0.607007 0.59986
72 2 0.548641 0.610508 0.590039
32 2 0.548901 0.575884 0.574341
14 1 0.550464 0.5596 0.590282
37 2 0.572712 0.557905 0.572748
6 3 0.558443 0.550175 0.594025
20 1 0.565412 0.565584 0.570255
130 2 0.580288 0.535177 0.606505
205 2 0.559981 0.581817 0.604202
207 2 0.578684 0.586902 0.590426
102 1 0.587711 0.541572 0.610925
17 1 0.554372 0.567682 0.577811
36 2 0.568203 0.572579 0.562704
177 1 0.565474 0.581438 0.613507
181 1 0.577616 0.597341 0.592849
150 3 0.582702 0.599349 0.60663
208 2 0.565923 0.599397 0.59345
212 2 0.581474 0.605151 0.571736
100 1 0.587897 0.555667 0.608026
128 2 0.580093 0.560291 0.602429
92 1 0.598352 0.563639 0.613211
120 2 0.598262 0.573961 0.610952
183 1 0.58295 0.607406 0.582168
80 3 0.66166 0.580249 0.590273
133 2 0.637091 0.56973 0.585321
105 1 0.639757 0.571776 0.59593
125 2 0.621082 0.564182 0.602583
97 1 0.630249 0.56814 0.605444
82 3 0.657662 0.608748 0.600938
109 1 0.652345 0.576571 0.600609
111 1 0.672952 0.588555 0.595085
142 2 0.668741 0.606224 0.583352
113 1 0.669771 0.603609 0.593783
139 2 0.682037 0.586599 0.588348
138 2 0.675766 0.584955 0.605129
143 2 0.677966 0.6097 0.598216
107 1 0.654828 0.57928 0.614113
218 2 0.561618 0.658464 0.564532
189 1 0.562927 0.647656 0.564952
217 2 0.562016 0.642232 0.555834
185 1 0.570474 0.626645 0.573486
154 3 0.567219 0.620519 0.562703
54 1 0.548473 0.617515 0.611061
215 2 0.570161 0.646371 0.584754
187 1 0.56817 0.641546 0.5754
58 1 0.584205 0.684759 0.580644
73 2 0.581951 0.694249 0.575472
55 1 0.576265 0.680228 0.590117
70 2 0.566805 0.684591 0.591598
74 2 0.593695 0.680329 0.577779
152 3 0.57691 0.620478 0.584933
211 2 0.593894 0.608258 0.583257
44 3 0.593786 0.664443 0.597194
52 1 0.581466 0.66785 0.597922
61 2 0.577301 0.641563 0.604468
42 3 0.55437 0.629212 0.606143
40 3 0.570982 0.660733 0.604406
48 1 0.576793 0.648894 0.612108
62 2 0.586726 0.64946 0.61619
7 3 0.501284 0.52298 0.620614
151 3 0.538525 0.518681 0.621998
204 2 0.528865 0.531579 0.640298
122 2 0.597462 0.525728 0.622616
180 1 0.544825 0.530695 0.627324
178 1 0.558054 0.535139 0.62304
123 2 0.614652 0.520985 0.639927
131 2 0.632073 0.521504 0.658676
95 1 0.621159 0.529455 0.642623
27 2 0.514177 0.543361 0.623348
46 3 0.545511 0.613698 0.623088
19 1 0.501419 0.61688 0.61609
5 3 0.495632 0.58901 0.616273
35 2 0.493706 0.612749 0.621993
28 2 0.527154 0.578587 0.625017
12 1 0.522958 0.569053 0.626867
11 1 0.510725 0.548496 0.615167
30 2 0.505666 0.57795 0.633178
26 2 0.501023 0.551767 0.618655
4 3 0.511513 0.571084 0.63494
29 2 0.531548 0.564474 0.63238
199 2 0.526973 0.588563 0.666841
171 1 0.535383 0.582268 0.668263
201 2 0.536714 0.585265 0.688949
179 1 0.576757 0.589905 0.616069
176 1 0.538088 0.536166 0.637949
94 1 0.597255 0.535877 0.619733
88 1 0.607891 0.544141 0.624843
197 2 0.550613 0.569594 0.622682
86 1 0.608787 0.557692 0.620526
173 1 0.54162 0.581236 0.681089
198 2 0.571804 0.551743 0.625598
200 2 0.606129 0.546882 0.656786
196 2 0.538887 0.552933 0.652742
191 2 0.537974 0.576397 0.647006
169 1 0.559829 0.574621 0.624499
163 1 0.541631 0.575571 0.657221
165 1 0.554392 0.575415 0.683867
168 1 0.544137 0.546998 0.645003
203 2 0.592256 0.595101 0.629548
175 1 0.583263 0.589775 0.628402
157 1 0.554457 0.570176 0.659223
170 1 0.562811 0.546899 0.629092
159 1 0.561167 0.571447 0.671911
161 1 0.566499 0.574277 0.636908
156 1 0.563279 0.563927 0.648252
158 1 0.575325 0.559884 0.656487
160 1 0.57424 0.564554 0.670532
162 1 0.555913 0.552918 0.640303
164 1 0.586724 0.554635 0.650665
167 1 0.577359 0.58277 0.639059
172 1 0.596877 0.551931 0.660054
192 2 0.587283 0.550813 0.640186
195 2 0.581754 0.583051 0.64903
166 1 0.585253 0.562947 0.679064
174 1 0.595532 0.55511 0.673719
202 2 0.60356 0.551348 0.679849
194 2 0.585082 0.56608 0.689299
45 3 0.57799 0.614329 0.646799
76 2 0.568803 0.598344 0.664708
59 1 0.559847 0.603336 0.665751
132 2 0.609562 0.592664 0.664797
75 2 0.554117 0.600326 0.673937
104 1 0.611724 0.591301 0.653925
108 1 0.612121 0.603838 0.647714
124 2 0.612695 0.569562 0.653498
96 1 0.613389 0.578588 0.647944
56 1 0.555801 0.61364 0.658341
103 1 0.631149 0.529804 0.652404
129 2 0.646345 0.542876 0.662159
101 1 0.638176 0.542568 0.654547
89 1 0.618618 0.541719 0.634946
126 2 0.616957 0.590235 0.616276
87 1 0.625322 0.553776 0.637476
93 1 0.635378 0.554245 0.647363
91 1 0.633141 0.56885 0.6191
85 1 0.62067 0.565088 0.628001
115 1 0.660648 0.609656 0.614929
135 2 0.663172 0.584681 0.617594
84 3 0.672746 0.609813 0.620087
90 1 0.617292 0.578469 0.634297
106 1 0.613438 0.603354 0.633278
98 1 0.615707 0.590708 0.627178
121 2 0.640946 0.563478 0.649531
99 1 0.645311 0.57423 0.623873
127 2 0.64754 0.575812 0.633972
117 1 0.648282 0.612398 0.623158
148 2 0.658791 0.611776 0.641234
119 1 0.649491 0.613637 0.636387
149 2 0.64136 0.616337 0.643166
145 2 0.639635 0.61513 0.617795
34 2 0.502584 0.627701 0.615506
63 2 0.573705 0.62661 0.624608
53 1 0.566046 0.618912 0.648042
79 3 0.608674 0.615191 0.655852
144 2 0.545485 0.650316 0.640066
147 2 0.546648 0.66581 0.619355
49 1 0.571218 0.634462 0.631142
71 2 0.54689 0.618854 0.659708
41 3 0.560919 0.630464 0.641703
65 2 0.551875 0.648783 0.607828
66 2 0.545994 0.639678 0.622253
64 2 0.581042 0.636436 0.637596
116 1 0.550728 0.659653 0.639575
68 2 0.550403 0.664586 0.649302
118 1 0.55212 0.668882 0.627956
146 2 0.554183 0.679464 0.63013
50 1 0.554684 0.641781 0.615545
69 2 0.582949 0.682309 0.644099
43 3 0.574692 0.677075 0.642694
51 1 0.563822 0.658446 0.631588
114 1 0.577406 0.66393 0.638148
83 3 0.588477 0.657252 0.639303
47 1 0.566551 0.646265 0.622953
67 2 0.60615 0.656932 0.648207
81 3 0.61307 0.653736 0.653666
140 2 0.599382 0.641599 0.662003
112 1 0.610066 0.640545 0.658676
137 2 0.605322 0.628654 0.640176
110 1 0.611502 0.627912 0.648988
141 2 0.617047 0.639059 0.666788
134 2 0.613828 0.612808 0.628108
136 2 0.621068 0.626947 0.644213
193 2 0.55853 0.574777 0.694068
