ITEM: TIMESTEP
1165000
ITEM: NUMBER OF ATOMS
220
ITEM: BOX BOUNDS ff ff ff
-5.0000000000000000e+01 5.0000000000000000e+01
-5.0000000000000000e+01 5.0000000000000000e+01
-5.0000000000000000e+01 5.0000000000000000e+01
ITEM: ATOMS id type xs ys zs
149 2 0.592449 0.563903 0.499429
119 1 0.593879 0.567433 0.509161
148 2 0.594898 0.578328 0.508449
145 2 0.588074 0.550064 0.519765
117 1 0.590935 0.560469 0.520185
133 2 0.579607 0.540141 0.588936
138 2 0.58058 0.561134 0.578547
105 1 0.569614 0.541579 0.59125
97 1 0.565043 0.537456 0.604825
139 2 0.584075 0.546858 0.56712
5 3 0.51255 0.606883 0.541822
201 2 0.51429 0.597032 0.60093
171 1 0.53575 0.596516 0.597421
199 2 0.535312 0.593933 0.586735
127 2 0.531743 0.548803 0.603667
35 2 0.493099 0.60977 0.555689
19 1 0.496374 0.611865 0.565204
13 1 0.516436 0.609625 0.553816
173 1 0.524184 0.598011 0.605377
1 3 0.52843 0.608599 0.561096
34 2 0.4906 0.61334 0.573688
16 1 0.508539 0.611648 0.566681
111 1 0.578589 0.556751 0.568926
109 1 0.56041 0.548817 0.583215
142 2 0.591976 0.570935 0.560855
163 1 0.547585 0.598364 0.604587
135 2 0.538914 0.554323 0.581715
107 1 0.546903 0.549952 0.587748
99 1 0.542725 0.546462 0.600772
30 2 0.573993 0.587752 0.538531
4 3 0.564908 0.590705 0.538272
22 2 0.540371 0.590909 0.552872
115 1 0.590575 0.567002 0.53426
28 2 0.570368 0.611477 0.541983
82 3 0.584038 0.558622 0.543511
84 3 0.593822 0.579278 0.53753
80 3 0.564312 0.553667 0.570145
113 1 0.582844 0.565637 0.557213
143 2 0.575955 0.574518 0.555162
191 2 0.557846 0.598922 0.599656
37 2 0.597127 0.577307 0.594675
20 1 0.601052 0.585801 0.589999
195 2 0.57804 0.602825 0.607364
6 3 0.574236 0.583385 0.585622
14 1 0.580246 0.592727 0.579067
17 1 0.594983 0.594283 0.581689
32 2 0.600576 0.603314 0.577523
29 2 0.554901 0.608835 0.535186
2 3 0.574397 0.600924 0.569387
10 1 0.559996 0.597855 0.56569
25 2 0.560447 0.587409 0.563
8 1 0.553698 0.606148 0.554931
12 1 0.561924 0.604681 0.542506
167 1 0.575844 0.611646 0.612274
24 2 0.554401 0.599084 0.574985
9 1 0.539778 0.60168 0.55251
198 2 0.556154 0.576751 0.613705
206 2 0.572532 0.557323 0.609762
178 1 0.574941 0.56522 0.616779
157 1 0.547901 0.5988 0.618966
170 1 0.565973 0.575548 0.618639
36 2 0.611871 0.587263 0.591763
31 2 0.512847 0.613057 0.576859
23 2 0.536221 0.604093 0.542853
175 1 0.583213 0.623458 0.608864
150 3 0.581425 0.649597 0.609874
203 2 0.591919 0.623685 0.601921
179 1 0.578087 0.636078 0.613649
183 1 0.598522 0.661878 0.592955
208 2 0.581192 0.648768 0.588542
11 1 0.553269 0.620627 0.560577
3 3 0.549757 0.62378 0.574307
26 2 0.547206 0.626535 0.553897
27 2 0.563911 0.623505 0.558551
181 1 0.588971 0.65021 0.596428
15 1 0.55173 0.638105 0.577758
207 2 0.594649 0.640988 0.595619
7 3 0.558118 0.646394 0.570801
33 2 0.540491 0.632411 0.596229
18 1 0.545825 0.639776 0.591206
21 1 0.545684 0.65163 0.597084
39 2 0.550121 0.659421 0.59178
38 2 0.540924 0.653677 0.60662
211 2 0.599237 0.66396 0.582455
212 2 0.592615 0.671055 0.595876
154 3 0.610261 0.683802 0.584492
185 1 0.615487 0.677747 0.594543
152 3 0.612606 0.664587 0.598854
217 2 0.625705 0.703028 0.589747
101 1 0.518982 0.509706 0.621261
131 2 0.501081 0.510215 0.632685
103 1 0.509233 0.516228 0.630476
129 2 0.517162 0.500121 0.617238
87 1 0.534374 0.528631 0.625705
95 1 0.513393 0.526685 0.638936
89 1 0.524959 0.534405 0.634914
93 1 0.531343 0.516234 0.619705
121 2 0.538976 0.51169 0.613577
124 2 0.549778 0.51079 0.630268
125 2 0.572635 0.532814 0.610413
91 1 0.55208 0.540462 0.609381
85 1 0.548134 0.5359 0.624404
132 2 0.561321 0.499225 0.648677
79 3 0.580616 0.508108 0.662786
104 1 0.564034 0.509108 0.645534
108 1 0.57484 0.516033 0.651862
96 1 0.556989 0.51567 0.635285
90 1 0.559575 0.529232 0.631719
110 1 0.594122 0.512469 0.6657
112 1 0.59872 0.515399 0.680371
140 2 0.593571 0.524888 0.684239
141 2 0.597214 0.507465 0.687355
136 2 0.598434 0.50297 0.661262
98 1 0.57096 0.535631 0.637681
106 1 0.579046 0.528626 0.646992
137 2 0.596553 0.520877 0.659147
134 2 0.588816 0.532223 0.651087
126 2 0.573705 0.545871 0.636089
67 2 0.61532 0.525563 0.672257
81 3 0.612939 0.517658 0.677932
123 2 0.506774 0.52971 0.64664
88 1 0.53042 0.54761 0.638021
122 2 0.514209 0.557691 0.649727
94 1 0.524056 0.558915 0.644306
165 1 0.522472 0.598971 0.619232
159 1 0.535349 0.599792 0.625342
193 2 0.512471 0.60135 0.623495
194 2 0.519925 0.610089 0.646701
166 1 0.529955 0.60919 0.648852
102 1 0.532653 0.569674 0.647676
130 2 0.527227 0.576454 0.653747
210 2 0.614132 0.56043 0.623468
151 3 0.595508 0.554103 0.617901
209 2 0.612948 0.543088 0.619274
161 1 0.566115 0.611375 0.623103
162 1 0.570169 0.586267 0.627225
180 1 0.588201 0.5651 0.622755
160 1 0.539043 0.603339 0.639737
86 1 0.543409 0.549022 0.631497
100 1 0.545564 0.571553 0.641546
128 2 0.552011 0.579452 0.643472
174 1 0.534988 0.613266 0.660941
92 1 0.550372 0.560632 0.633427
120 2 0.560476 0.56207 0.629118
172 1 0.548908 0.611005 0.663979
156 1 0.560397 0.598272 0.627942
182 1 0.608681 0.551272 0.625441
196 2 0.584499 0.593933 0.641204
204 2 0.602489 0.57806 0.631563
176 1 0.592195 0.5769 0.629584
168 1 0.582895 0.586678 0.633526
158 1 0.552925 0.601237 0.642028
164 1 0.557806 0.604919 0.654881
192 2 0.567836 0.606131 0.657919
116 1 0.583638 0.561275 0.675652
68 2 0.574628 0.557236 0.680023
147 2 0.59238 0.56421 0.657406
48 1 0.596811 0.597622 0.674579
118 1 0.583448 0.566613 0.662117
146 2 0.575118 0.567126 0.656202
62 2 0.595664 0.604196 0.683583
51 1 0.584732 0.577031 0.675931
43 3 0.562555 0.574447 0.681377
47 1 0.597639 0.583516 0.678917
114 1 0.572204 0.584607 0.681636
69 2 0.555101 0.576527 0.687463
49 1 0.601123 0.582353 0.693575
144 2 0.592499 0.555247 0.678707
42 3 0.610964 0.579739 0.657793
213 2 0.605447 0.535673 0.640164
184 1 0.608854 0.54682 0.640207
214 2 0.600741 0.551811 0.646145
155 3 0.610867 0.543002 0.66885
61 2 0.607882 0.598751 0.673322
83 3 0.572032 0.595614 0.688094
50 1 0.609701 0.577194 0.672635
66 2 0.617756 0.580201 0.679072
72 2 0.616824 0.587711 0.633076
65 2 0.610049 0.566006 0.673688
40 3 0.58956 0.60171 0.66163
64 2 0.606485 0.572919 0.696342
77 2 0.634982 0.58414 0.620644
54 1 0.624538 0.579104 0.652879
57 1 0.625073 0.583352 0.6385
78 2 0.646955 0.577699 0.634442
60 1 0.636716 0.581919 0.631332
219 2 0.622549 0.544584 0.687051
186 1 0.621131 0.546468 0.661573
190 1 0.631839 0.546082 0.683089
220 2 0.640092 0.546632 0.69017
216 2 0.642911 0.55167 0.666515
188 1 0.633397 0.548473 0.670095
153 3 0.622233 0.548666 0.647766
46 3 0.634953 0.57628 0.659899
202 2 0.52881 0.61947 0.667654
200 2 0.551538 0.613863 0.674296
44 3 0.601513 0.623293 0.665033
197 2 0.554387 0.623527 0.635576
52 1 0.596023 0.613758 0.657904
169 1 0.56163 0.624217 0.62815
205 2 0.564823 0.645738 0.62625
177 1 0.567516 0.635988 0.622829
73 2 0.5982 0.627846 0.626628
55 1 0.598542 0.614608 0.642939
58 1 0.598985 0.62687 0.637138
70 2 0.5984 0.605828 0.636091
74 2 0.600176 0.636541 0.642725
215 2 0.628094 0.683235 0.612749
187 1 0.624771 0.686454 0.603008
189 1 0.629644 0.698146 0.597751
218 2 0.636106 0.704937 0.604002
63 2 0.591636 0.581525 0.699513
41 3 0.607636 0.593949 0.700367
45 3 0.629046 0.581868 0.700825
53 1 0.621862 0.592478 0.701802
56 1 0.628197 0.606811 0.70119
75 2 0.646222 0.618195 0.701793
59 1 0.641069 0.60856 0.703132
76 2 0.648027 0.600234 0.704779
71 2 0.62262 0.615149 0.697248
