ITEM: TIMESTEP
835000
ITEM: NUMBER OF ATOMS
220
ITEM: BOX BOUNDS ff ff ff
-5.0000000000000000e+01 5.0000000000000000e+01
-5.0000000000000000e+01 5.0000000000000000e+01
-5.0000000000000000e+01 5.0000000000000000e+01
ITEM: ATOMS id type xs ys zs
38 2 0.56715 0.526932 0.530073
21 1 0.574867 0.531799 0.53658
39 2 0.584422 0.526841 0.537175
33 2 0.563583 0.547686 0.543018
29 2 0.596254 0.526401 0.588885
12 1 0.59534 0.534155 0.580672
4 3 0.609331 0.536602 0.577299
28 2 0.590448 0.528896 0.571796
155 3 0.582843 0.513924 0.597477
214 2 0.551985 0.51251 0.602669
219 2 0.602332 0.499104 0.595684
190 1 0.600778 0.494623 0.604849
220 2 0.608062 0.486945 0.607372
186 1 0.579236 0.507305 0.608067
188 1 0.590205 0.497688 0.612893
213 2 0.561723 0.526834 0.608084
23 2 0.56956 0.53627 0.58258
216 2 0.589017 0.492718 0.622275
30 2 0.616826 0.535089 0.582618
14 1 0.608033 0.540579 0.616171
6 3 0.619657 0.545256 0.613585
149 2 0.639788 0.505896 0.547237
119 1 0.638331 0.511823 0.55669
148 2 0.629597 0.50932 0.562788
145 2 0.656194 0.522474 0.555632
117 1 0.647935 0.519328 0.561453
84 3 0.634256 0.521821 0.582232
115 1 0.6446 0.525549 0.575499
143 2 0.655321 0.5375 0.59852
19 1 0.526757 0.558998 0.595512
35 2 0.523395 0.54873 0.596899
34 2 0.519042 0.565918 0.594146
207 2 0.491604 0.607399 0.606709
150 3 0.511662 0.605177 0.601563
179 1 0.517388 0.600022 0.613963
175 1 0.528555 0.592541 0.610112
203 2 0.531731 0.591523 0.599816
18 1 0.573285 0.542982 0.544101
5 3 0.544007 0.539737 0.595288
22 2 0.574405 0.537277 0.599233
8 1 0.588094 0.547192 0.58591
2 3 0.595429 0.542555 0.609166
16 1 0.539417 0.561979 0.594181
13 1 0.550403 0.551264 0.594938
31 2 0.541499 0.572127 0.593033
3 3 0.578337 0.556286 0.56412
7 3 0.595694 0.541667 0.554195
15 1 0.583921 0.547204 0.554331
26 2 0.598015 0.557522 0.572655
11 1 0.587622 0.558837 0.575322
9 1 0.573753 0.542572 0.590519
1 3 0.564443 0.553838 0.594483
24 2 0.607291 0.552688 0.594561
10 1 0.596969 0.552022 0.598526
27 2 0.584683 0.568838 0.579122
128 2 0.584209 0.604653 0.594727
25 2 0.59468 0.562633 0.600282
120 2 0.604523 0.603008 0.608847
100 1 0.584824 0.597796 0.603171
130 2 0.565333 0.589789 0.598157
102 1 0.574022 0.588328 0.60422
92 1 0.596931 0.595481 0.610388
125 2 0.611694 0.576559 0.604385
94 1 0.575065 0.57661 0.612174
82 3 0.652422 0.53707 0.577305
113 1 0.650326 0.543771 0.590852
142 2 0.639479 0.543732 0.593118
139 2 0.666885 0.558387 0.587951
138 2 0.650839 0.563549 0.583269
111 1 0.656372 0.558205 0.590905
80 3 0.656979 0.564601 0.604669
109 1 0.644299 0.569052 0.609259
133 2 0.633854 0.571024 0.590975
105 1 0.632966 0.572133 0.601542
97 1 0.621206 0.5768 0.608614
218 2 0.456257 0.65605 0.567193
189 1 0.465073 0.650846 0.568338
215 2 0.46097 0.644595 0.587622
181 1 0.50012 0.61421 0.603194
208 2 0.500092 0.622068 0.611299
212 2 0.495918 0.615057 0.580987
217 2 0.472079 0.652581 0.560551
152 3 0.48342 0.629437 0.591713
154 3 0.489054 0.638588 0.569598
183 1 0.496308 0.62128 0.589801
185 1 0.482223 0.637837 0.580429
211 2 0.503399 0.629093 0.586993
187 1 0.468594 0.644913 0.579845
146 2 0.540997 0.642758 0.614257
77 2 0.608026 0.633431 0.592526
60 1 0.604851 0.631086 0.60283
72 2 0.584556 0.634376 0.599759
70 2 0.576597 0.660263 0.602303
55 1 0.583793 0.660708 0.610328
73 2 0.599342 0.663036 0.595874
74 2 0.603853 0.662791 0.613326
58 1 0.596378 0.66156 0.606215
57 1 0.592264 0.631515 0.606784
147 2 0.558017 0.640236 0.615902
206 2 0.532997 0.541112 0.619442
210 2 0.539235 0.525582 0.618335
184 1 0.557145 0.516831 0.611042
153 3 0.567996 0.508501 0.616806
209 2 0.543284 0.509471 0.6263
17 1 0.605708 0.53088 0.62799
182 1 0.547395 0.519676 0.622584
151 3 0.551717 0.526073 0.635031
32 2 0.596307 0.525759 0.63041
20 1 0.616253 0.527741 0.635721
36 2 0.615731 0.520557 0.643837
37 2 0.626734 0.53129 0.63345
205 2 0.50417 0.607712 0.629871
177 1 0.512815 0.60196 0.627568
199 2 0.514546 0.573096 0.683105
171 1 0.521307 0.579774 0.678157
173 1 0.530401 0.588032 0.686041
163 1 0.523856 0.578103 0.664154
191 2 0.516902 0.572641 0.658064
197 2 0.5207 0.599724 0.647775
169 1 0.522139 0.597722 0.637001
157 1 0.535255 0.584372 0.658393
198 2 0.529222 0.565092 0.624404
167 1 0.536372 0.586417 0.619677
170 1 0.53495 0.559786 0.63137
161 1 0.533097 0.589773 0.632948
165 1 0.540528 0.59581 0.680193
193 2 0.544827 0.603082 0.685724
131 2 0.583104 0.537364 0.648747
103 1 0.588404 0.545628 0.644542
129 2 0.604722 0.540806 0.657022
123 2 0.570798 0.553716 0.631985
159 1 0.54385 0.591949 0.666912
204 2 0.559941 0.54136 0.653227
180 1 0.546329 0.53929 0.636978
195 2 0.543894 0.579553 0.617024
122 2 0.567891 0.569285 0.612503
86 1 0.597495 0.585316 0.62023
88 1 0.586445 0.575684 0.620677
95 1 0.581682 0.554287 0.635367
89 1 0.588847 0.565606 0.631273
178 1 0.537119 0.546058 0.628416
176 1 0.552682 0.545937 0.647237
200 2 0.585891 0.59693 0.63486
196 2 0.553096 0.564137 0.65929
168 1 0.550251 0.559579 0.649804
156 1 0.541032 0.582554 0.643909
158 1 0.554746 0.588991 0.645767
160 1 0.556703 0.594001 0.659552
162 1 0.541197 0.566747 0.641906
164 1 0.564821 0.591285 0.636484
172 1 0.57693 0.59635 0.641387
192 2 0.564755 0.588497 0.62605
166 1 0.568535 0.600217 0.664302
174 1 0.579473 0.599015 0.655237
87 1 0.602118 0.567889 0.636834
202 2 0.589332 0.602793 0.657446
85 1 0.608174 0.58062 0.630503
101 1 0.601214 0.547331 0.649325
96 1 0.609911 0.589165 0.656217
124 2 0.608066 0.579356 0.660091
104 1 0.611285 0.600281 0.664818
132 2 0.609748 0.59867 0.675327
93 1 0.608133 0.559479 0.645918
194 2 0.568578 0.602795 0.674559
144 2 0.552139 0.614868 0.62122
90 1 0.610517 0.591208 0.642015
126 2 0.612898 0.605312 0.625248
98 1 0.612428 0.60416 0.636734
107 1 0.644288 0.570572 0.623161
135 2 0.652497 0.566599 0.629302
127 2 0.633431 0.577929 0.640244
99 1 0.633827 0.577144 0.629837
121 2 0.618546 0.55894 0.648183
91 1 0.621948 0.579004 0.622627
68 2 0.534992 0.619621 0.620829
69 2 0.51488 0.635336 0.638657
43 3 0.522938 0.634995 0.633361
114 1 0.53371 0.639192 0.641754
83 3 0.532366 0.646201 0.652391
116 1 0.544967 0.62304 0.622382
118 1 0.548533 0.636707 0.619309
51 1 0.546815 0.634534 0.634797
62 2 0.560131 0.655144 0.647695
46 3 0.596666 0.62523 0.629643
65 2 0.566983 0.615619 0.639648
54 1 0.587615 0.626812 0.620678
44 3 0.588949 0.661989 0.63304
67 2 0.594867 0.656332 0.649314
81 3 0.597168 0.655859 0.658465
64 2 0.552665 0.622234 0.657338
63 2 0.552938 0.638432 0.66305
49 1 0.55852 0.631119 0.656805
61 2 0.575926 0.649465 0.644206
42 3 0.573533 0.625478 0.622757
48 1 0.565334 0.64881 0.640985
71 2 0.592324 0.623615 0.680247
41 3 0.571755 0.629015 0.664747
53 1 0.570261 0.627453 0.678643
112 1 0.598524 0.643366 0.665735
50 1 0.569972 0.625067 0.637225
66 2 0.578788 0.627105 0.642847
47 1 0.559677 0.634968 0.64227
52 1 0.579232 0.659781 0.624625
40 3 0.565748 0.656023 0.626997
140 2 0.590737 0.636079 0.661762
45 3 0.559671 0.627824 0.68596
56 1 0.583458 0.626302 0.686208
137 2 0.616707 0.638149 0.653779
141 2 0.59629 0.64516 0.676128
110 1 0.612965 0.637795 0.664097
106 1 0.613846 0.615087 0.645619
108 1 0.614433 0.613149 0.65948
78 2 0.612977 0.628438 0.609108
134 2 0.614706 0.625512 0.641582
136 2 0.620535 0.644403 0.668188
79 3 0.61474 0.624066 0.669157
201 2 0.527844 0.590138 0.696568
59 1 0.583727 0.63023 0.698224
75 2 0.592062 0.631894 0.704152
76 2 0.574813 0.632349 0.702785
