ITEM: TIMESTEP
915000
ITEM: NUMBER OF ATOMS
220
ITEM: BOX BOUNDS ff ff ff
-5.0000000000000000e+01 5.0000000000000000e+01
-5.0000000000000000e+01 5.0000000000000000e+01
-5.0000000000000000e+01 5.0000000000000000e+01
ITEM: ATOMS id type xs ys zs
34 2 0.560953 0.505232 0.553278
19 1 0.565175 0.513793 0.558947
16 1 0.578187 0.516768 0.560669
31 2 0.586303 0.509959 0.557554
35 2 0.558499 0.521089 0.56298
1 3 0.595056 0.532432 0.569622
13 1 0.581191 0.529417 0.568671
117 1 0.66612 0.535792 0.564563
145 2 0.657714 0.52904 0.565199
149 2 0.67036 0.532025 0.544343
119 1 0.673011 0.537096 0.553018
148 2 0.681787 0.543347 0.552187
24 2 0.617743 0.527263 0.588079
181 1 0.5293 0.596811 0.581664
207 2 0.523438 0.587726 0.578834
179 1 0.53893 0.591997 0.603121
150 3 0.541742 0.592034 0.58882
211 2 0.537394 0.601937 0.562285
208 2 0.521571 0.601265 0.587868
183 1 0.530999 0.606281 0.570199
205 2 0.523547 0.606532 0.609502
177 1 0.530631 0.598554 0.612565
175 1 0.546018 0.580838 0.607771
203 2 0.551183 0.575467 0.600434
2 3 0.607618 0.534374 0.605942
5 3 0.571709 0.536731 0.573559
29 2 0.615216 0.539779 0.563953
9 1 0.596223 0.543239 0.579788
23 2 0.589438 0.540745 0.588049
22 2 0.590538 0.551522 0.573587
8 1 0.610496 0.546972 0.584458
26 2 0.608362 0.559551 0.600427
11 1 0.610122 0.560135 0.59013
27 2 0.601714 0.565419 0.58596
130 2 0.569259 0.569457 0.589025
100 1 0.58556 0.58129 0.596328
102 1 0.575773 0.570714 0.597498
92 1 0.594652 0.583945 0.606614
122 2 0.568885 0.552931 0.607607
94 1 0.575271 0.561776 0.607875
43 3 0.554288 0.617275 0.600321
69 2 0.553537 0.616062 0.590272
128 2 0.585869 0.585554 0.586557
120 2 0.603245 0.591155 0.60591
167 1 0.547542 0.577195 0.621079
115 1 0.671076 0.542689 0.577584
82 3 0.661814 0.537525 0.587216
84 3 0.680403 0.55127 0.579026
142 2 0.655697 0.542835 0.606334
10 1 0.616273 0.536579 0.593728
12 1 0.618641 0.547642 0.571525
28 2 0.618116 0.55702 0.56578
125 2 0.62167 0.597798 0.625044
4 3 0.632746 0.544968 0.574323
25 2 0.625844 0.538344 0.598086
139 2 0.66307 0.565495 0.589543
143 2 0.67244 0.548196 0.602968
30 2 0.640452 0.550334 0.578452
3 3 0.623088 0.568928 0.589149
7 3 0.615373 0.581406 0.56945
15 1 0.623468 0.579105 0.579693
39 2 0.629453 0.602401 0.56685
18 1 0.635748 0.588054 0.58107
21 1 0.637898 0.598803 0.573687
33 2 0.644727 0.585339 0.586432
38 2 0.646966 0.604239 0.574272
105 1 0.637298 0.586815 0.615642
133 2 0.643575 0.596247 0.614101
111 1 0.655648 0.560595 0.596248
138 2 0.646091 0.559322 0.591879
113 1 0.661615 0.546311 0.598886
212 2 0.521157 0.608515 0.56581
83 3 0.539889 0.637071 0.600705
146 2 0.570935 0.616016 0.617508
152 3 0.53885 0.618935 0.573018
154 3 0.555721 0.607957 0.559768
217 2 0.576818 0.626297 0.557851
185 1 0.551202 0.618526 0.565985
189 1 0.571309 0.633542 0.562624
187 1 0.558158 0.631851 0.566823
218 2 0.576519 0.643306 0.563748
215 2 0.553776 0.640745 0.571763
114 1 0.54751 0.62853 0.606343
66 2 0.547568 0.655251 0.617374
220 2 0.487353 0.472346 0.647619
190 1 0.494217 0.479011 0.642081
188 1 0.505323 0.483059 0.647732
216 2 0.508744 0.479586 0.657209
206 2 0.533365 0.535698 0.639037
153 3 0.523384 0.498138 0.650746
219 2 0.490976 0.482788 0.632655
209 2 0.548741 0.519526 0.645483
213 2 0.526935 0.51454 0.638425
155 3 0.510433 0.499019 0.629542
186 1 0.514072 0.493693 0.640834
14 1 0.615247 0.528723 0.616348
210 2 0.548696 0.508312 0.658487
214 2 0.521791 0.518783 0.65478
184 1 0.528919 0.51245 0.649504
37 2 0.624883 0.515289 0.638698
182 1 0.542868 0.516276 0.654499
151 3 0.542642 0.527575 0.663775
20 1 0.616227 0.521251 0.640936
36 2 0.612399 0.519873 0.651213
17 1 0.609674 0.527568 0.631056
131 2 0.581979 0.533776 0.655953
6 3 0.627667 0.523473 0.616117
197 2 0.525087 0.599914 0.632602
169 1 0.531061 0.594331 0.625878
199 2 0.497741 0.597224 0.662691
171 1 0.508534 0.598336 0.661543
163 1 0.515661 0.589419 0.653285
191 2 0.510366 0.582434 0.646299
157 1 0.529755 0.589772 0.654687
173 1 0.515833 0.607351 0.669746
198 2 0.532106 0.559041 0.631681
170 1 0.535535 0.5573 0.641058
165 1 0.529265 0.610357 0.667652
159 1 0.536775 0.599916 0.661468
193 2 0.533446 0.619262 0.672477
201 2 0.510966 0.613732 0.676886
161 1 0.539746 0.584552 0.630649
70 2 0.502465 0.612034 0.646705
88 1 0.584327 0.565034 0.618673
123 2 0.571422 0.546007 0.63492
68 2 0.550959 0.60433 0.621128
180 1 0.540763 0.540616 0.658076
178 1 0.536643 0.543738 0.644935
162 1 0.540439 0.567791 0.649284
156 1 0.540549 0.583244 0.646039
160 1 0.5514 0.600078 0.659192
86 1 0.59353 0.576112 0.618556
89 1 0.587575 0.55912 0.631612
95 1 0.580508 0.548593 0.63872
32 2 0.600034 0.532422 0.63337
126 2 0.587076 0.600796 0.624581
85 1 0.603296 0.577394 0.630453
204 2 0.545233 0.548392 0.676845
129 2 0.598971 0.546853 0.666851
196 2 0.547335 0.572514 0.669341
176 1 0.542723 0.551037 0.667098
168 1 0.544006 0.564366 0.66229
103 1 0.585834 0.542223 0.650367
101 1 0.595851 0.549715 0.657182
195 2 0.552847 0.569034 0.624679
158 1 0.553931 0.589526 0.649649
200 2 0.587862 0.588006 0.65383
164 1 0.566976 0.583895 0.648873
172 1 0.577531 0.590837 0.655409
192 2 0.568543 0.575568 0.642192
87 1 0.597667 0.566018 0.639056
90 1 0.603303 0.592218 0.63713
98 1 0.594854 0.602323 0.63224
93 1 0.602887 0.560827 0.651201
174 1 0.575478 0.602631 0.663205
166 1 0.562035 0.606094 0.666919
121 2 0.611753 0.564684 0.655257
96 1 0.610911 0.594462 0.648775
202 2 0.582949 0.608414 0.666387
194 2 0.560366 0.612383 0.675432
116 1 0.55126 0.612531 0.627878
144 2 0.548031 0.610531 0.63778
91 1 0.617462 0.576227 0.624637
127 2 0.614907 0.554605 0.621631
104 1 0.612395 0.607623 0.654542
124 2 0.616059 0.586156 0.653487
132 2 0.61617 0.610073 0.66418
97 1 0.624759 0.588101 0.621812
80 3 0.654842 0.57125 0.606284
107 1 0.633854 0.561889 0.613641
135 2 0.638557 0.552527 0.612425
99 1 0.621288 0.563253 0.620282
109 1 0.641681 0.573786 0.611925
61 2 0.526181 0.641493 0.619818
44 3 0.501067 0.639572 0.628151
74 2 0.48085 0.627039 0.630815
73 2 0.478506 0.61159 0.641186
52 1 0.507612 0.629614 0.633378
55 1 0.498147 0.618778 0.639132
58 1 0.484888 0.619016 0.636567
40 3 0.521568 0.627575 0.63485
62 2 0.525621 0.6469 0.636343
48 1 0.530124 0.638696 0.629509
72 2 0.58503 0.671955 0.636675
57 1 0.580181 0.675358 0.628517
51 1 0.550834 0.627093 0.621755
42 3 0.565947 0.654594 0.627386
77 2 0.592094 0.693343 0.629409
118 1 0.564302 0.619997 0.625329
76 2 0.545377 0.646845 0.693055
108 1 0.605804 0.617947 0.647817
147 2 0.569878 0.624098 0.633142
60 1 0.583247 0.688246 0.625408
106 1 0.596121 0.615259 0.637827
78 2 0.578722 0.6943 0.618006
46 3 0.560148 0.673535 0.614402
54 1 0.56795 0.668139 0.62298
134 2 0.589445 0.622676 0.634889
79 3 0.607568 0.631086 0.653118
63 2 0.543541 0.627372 0.64938
65 2 0.546495 0.65814 0.634895
50 1 0.550894 0.651563 0.627929
136 2 0.602993 0.650434 0.646473
110 1 0.597393 0.640937 0.649916
45 3 0.552182 0.633945 0.672448
64 2 0.559122 0.632052 0.645336
71 2 0.548154 0.668427 0.670286
49 1 0.548717 0.635668 0.645033
41 3 0.549192 0.648827 0.653706
53 1 0.549568 0.645765 0.667205
47 1 0.545141 0.638071 0.63073
56 1 0.548593 0.658664 0.675493
59 1 0.546331 0.6566 0.688646
137 2 0.591385 0.63895 0.641265
112 1 0.588611 0.644505 0.662907
140 2 0.583127 0.635155 0.664924
67 2 0.570397 0.652071 0.658609
81 3 0.579563 0.655055 0.659708
141 2 0.594939 0.647088 0.671726
75 2 0.546071 0.665704 0.694557
