ITEM: TIMESTEP
540000
ITEM: NUMBER OF ATOMS
220
ITEM: BOX BOUNDS ff ff ff
-5.0000000000000000e+01 5.0000000000000000e+01
-5.0000000000000000e+01 5.0000000000000000e+01
-5.0000000000000000e+01 5.0000000000000000e+01
ITEM: ATOMS id type xs ys zs
39 2 0.535302 0.587624 0.516091
21 1 0.543284 0.58093 0.519336
38 2 0.548576 0.575242 0.512008
218 2 0.56724 0.593258 0.52117
189 1 0.573844 0.590486 0.529425
217 2 0.583237 0.586012 0.527334
155 3 0.548983 0.518027 0.5979
186 1 0.554373 0.527246 0.605162
219 2 0.553968 0.535429 0.579831
188 1 0.558951 0.540661 0.599806
190 1 0.558262 0.543008 0.586529
5 3 0.523609 0.54381 0.595667
25 2 0.518215 0.587845 0.598824
10 1 0.518458 0.590281 0.5883
24 2 0.508449 0.587634 0.584065
8 1 0.529313 0.583827 0.579219
11 1 0.526617 0.586775 0.56405
9 1 0.529414 0.568507 0.582797
26 2 0.526458 0.597665 0.561922
27 2 0.51664 0.584016 0.560815
23 2 0.520246 0.562781 0.581339
1 3 0.534092 0.566639 0.596774
2 3 0.517196 0.605413 0.588459
6 3 0.503965 0.602452 0.608114
13 1 0.530396 0.553409 0.601157
22 2 0.535889 0.562054 0.576671
14 1 0.510509 0.609838 0.599806
7 3 0.526619 0.593359 0.536516
15 1 0.53539 0.585315 0.541666
3 3 0.536452 0.58078 0.555292
28 2 0.544417 0.600754 0.578088
30 2 0.542469 0.601342 0.599908
12 1 0.542926 0.590996 0.582937
18 1 0.545006 0.578257 0.532454
33 2 0.553063 0.57149 0.535967
220 2 0.561889 0.552396 0.582165
4 3 0.545918 0.592822 0.596909
215 2 0.560518 0.593245 0.546015
29 2 0.551629 0.584766 0.579657
183 1 0.585042 0.591166 0.576978
207 2 0.575586 0.577099 0.59096
211 2 0.588292 0.601323 0.576618
212 2 0.59366 0.584951 0.574766
208 2 0.569493 0.592432 0.591974
181 1 0.578447 0.587441 0.590288
150 3 0.586039 0.591938 0.60222
152 3 0.574848 0.588037 0.566338
185 1 0.580112 0.587834 0.553216
187 1 0.570296 0.591296 0.542273
205 2 0.565418 0.573166 0.60803
216 2 0.56372 0.54711 0.606765
128 2 0.590423 0.56021 0.595872
100 1 0.593672 0.557416 0.605754
130 2 0.582916 0.538323 0.605673
92 1 0.602329 0.566594 0.612574
102 1 0.588818 0.545392 0.611316
120 2 0.605499 0.576452 0.607565
154 3 0.592298 0.586541 0.54915
70 2 0.530668 0.624809 0.57705
133 2 0.649595 0.546948 0.608039
105 1 0.64763 0.555703 0.61376
125 2 0.627459 0.549039 0.618424
80 3 0.669157 0.564891 0.608037
111 1 0.681621 0.569855 0.614858
109 1 0.65735 0.566092 0.615744
97 1 0.634924 0.556858 0.619625
138 2 0.686667 0.575343 0.607073
139 2 0.679201 0.576807 0.622107
32 2 0.513112 0.631571 0.594658
17 1 0.509399 0.625174 0.601899
20 1 0.504013 0.62999 0.613429
36 2 0.502373 0.640901 0.615629
37 2 0.500909 0.623153 0.620441
40 3 0.545666 0.625214 0.599931
73 2 0.538573 0.617375 0.555046
62 2 0.564231 0.627682 0.608219
58 1 0.545564 0.617961 0.563362
55 1 0.540935 0.62199 0.575162
74 2 0.555371 0.614599 0.561864
52 1 0.550844 0.621959 0.587032
44 3 0.562392 0.616548 0.584116
35 2 0.521474 0.536012 0.619882
34 2 0.531064 0.541415 0.634207
19 1 0.528126 0.543157 0.6235
213 2 0.538464 0.516257 0.624386
214 2 0.552932 0.506748 0.620437
153 3 0.557265 0.526332 0.619149
184 1 0.549439 0.515248 0.626208
210 2 0.547716 0.504539 0.644157
151 3 0.54497 0.525295 0.649321
182 1 0.551306 0.514557 0.641342
209 2 0.562199 0.514427 0.643706
206 2 0.574528 0.53175 0.646167
123 2 0.594341 0.533586 0.654872
180 1 0.553386 0.536767 0.651674
131 2 0.608785 0.534596 0.67593
103 1 0.609903 0.541509 0.667675
148 2 0.65898 0.524696 0.639285
84 3 0.668535 0.539709 0.621805
149 2 0.661418 0.524119 0.657666
119 1 0.663808 0.528474 0.64797
77 2 0.509627 0.567438 0.623132
16 1 0.533621 0.552848 0.61607
72 2 0.532076 0.577807 0.618841
60 1 0.51238 0.578002 0.6252
54 1 0.525383 0.598428 0.626318
78 2 0.503853 0.583571 0.62882
199 2 0.52417 0.599835 0.6536
57 1 0.523978 0.583535 0.622722
46 3 0.515294 0.602479 0.633247
171 1 0.533587 0.598281 0.658875
201 2 0.529694 0.612953 0.674761
204 2 0.534992 0.545078 0.659152
31 2 0.541094 0.559678 0.621173
191 2 0.54148 0.584797 0.643082
173 1 0.536952 0.606544 0.670358
61 2 0.558178 0.611445 0.608639
94 1 0.591716 0.542627 0.624798
122 2 0.58646 0.534046 0.629063
86 1 0.606561 0.562146 0.625361
179 1 0.580515 0.588006 0.614712
177 1 0.57021 0.578518 0.6161
95 1 0.601633 0.540895 0.656138
178 1 0.567277 0.539228 0.649589
42 3 0.537533 0.604785 0.622048
176 1 0.545123 0.546757 0.656957
196 2 0.544008 0.566353 0.665436
63 2 0.56198 0.607475 0.633158
163 1 0.542922 0.589359 0.653515
197 2 0.559322 0.566751 0.630515
203 2 0.595397 0.599181 0.62396
175 1 0.587038 0.59297 0.62609
169 1 0.566832 0.57449 0.629299
198 2 0.581034 0.55553 0.647776
157 1 0.555695 0.587138 0.659092
170 1 0.57162 0.552593 0.65118
159 1 0.558909 0.595496 0.67056
168 1 0.550198 0.559364 0.660338
161 1 0.571977 0.581604 0.640439
156 1 0.567371 0.577991 0.654939
158 1 0.576953 0.580582 0.666587
160 1 0.572587 0.591481 0.674931
162 1 0.562979 0.562724 0.655555
164 1 0.589628 0.574232 0.668467
167 1 0.582555 0.5906 0.63916
172 1 0.597682 0.579205 0.678754
192 2 0.592701 0.566277 0.661234
195 2 0.586699 0.596143 0.647648
88 1 0.599876 0.551693 0.631844
165 1 0.549898 0.605603 0.675579
166 1 0.579919 0.595057 0.6863
200 2 0.608256 0.576198 0.680159
174 1 0.592266 0.588654 0.687705
132 2 0.608446 0.601979 0.665281
193 2 0.552837 0.611095 0.684144
104 1 0.610541 0.599927 0.654791
89 1 0.604907 0.549978 0.645805
108 1 0.612705 0.610439 0.64568
87 1 0.615983 0.559291 0.646801
124 2 0.610995 0.578691 0.658273
96 1 0.612275 0.586404 0.65085
45 3 0.581807 0.61456 0.654592
126 2 0.622395 0.590085 0.619116
106 1 0.616932 0.607107 0.632594
101 1 0.620299 0.551004 0.669201
107 1 0.654567 0.576957 0.62473
90 1 0.616218 0.583204 0.63806
98 1 0.618735 0.59357 0.628838
115 1 0.674657 0.543408 0.632386
117 1 0.673035 0.538048 0.646642
129 2 0.625599 0.552677 0.67852
85 1 0.61789 0.567991 0.634412
93 1 0.623965 0.559918 0.658428
135 2 0.661611 0.584742 0.628008
91 1 0.632013 0.568008 0.627969
99 1 0.642132 0.577612 0.631484
121 2 0.633278 0.565835 0.658988
127 2 0.640295 0.584854 0.638914
145 2 0.679154 0.541859 0.654723
82 3 0.684421 0.553983 0.633825
143 2 0.689465 0.550783 0.613601
113 1 0.690033 0.558615 0.620838
142 2 0.70062 0.561386 0.621796
147 2 0.530928 0.642604 0.616923
65 2 0.530397 0.624399 0.623514
66 2 0.536763 0.617378 0.638619
48 1 0.555618 0.621771 0.61062
146 2 0.53942 0.658417 0.619435
49 1 0.561895 0.618265 0.633784
64 2 0.572456 0.619707 0.631289
118 1 0.538209 0.648339 0.622712
76 2 0.589744 0.628077 0.672923
144 2 0.533164 0.637914 0.641008
50 1 0.538347 0.618548 0.627609
69 2 0.571202 0.666 0.631948
67 2 0.587674 0.651847 0.6371
81 3 0.596604 0.654425 0.638604
116 1 0.540229 0.645408 0.636729
83 3 0.576151 0.642366 0.625495
68 2 0.543221 0.653316 0.644099
47 1 0.551812 0.625133 0.624855
41 3 0.559706 0.623298 0.647724
53 1 0.571037 0.621587 0.656399
114 1 0.564911 0.648276 0.628287
43 3 0.562496 0.661407 0.63203
112 1 0.600696 0.645534 0.64926
51 1 0.551598 0.639775 0.62775
56 1 0.569826 0.630642 0.668315
59 1 0.580762 0.632988 0.675993
71 2 0.560499 0.635195 0.670907
79 3 0.609744 0.623194 0.651853
140 2 0.592359 0.643238 0.655947
137 2 0.597967 0.62771 0.636115
141 2 0.60891 0.649239 0.654494
110 1 0.605542 0.632541 0.641566
134 2 0.619842 0.614876 0.625843
136 2 0.614278 0.633975 0.63479
194 2 0.576263 0.603326 0.69308
202 2 0.598404 0.591304 0.695492
75 2 0.580914 0.63866 0.684823
