ITEM: TIMESTEP
1475000
ITEM: NUMBER OF ATOMS
100
ITEM: BOX BOUNDS ff ff ff
-5.0000000000000000e+01 5.0000000000000000e+01
-5.0000000000000000e+01 5.0000000000000000e+01
-5.0000000000000000e+01 5.0000000000000000e+01
ITEM: ATOMS id type xs ys zs
209 2 0.763673 0.760062 0.139261
210 2 0.749805 0.748137 0.142342
182 1 0.758979 0.75238 0.145719
213 2 0.760221 0.741126 0.16327
184 1 0.764768 0.748693 0.156999
214 2 0.773926 0.752971 0.160315
145 2 0.985745 0.866776 0.294228
119 1 0.969367 0.877633 0.287736
117 1 0.978741 0.87507 0.294986
149 2 0.967677 0.88648 0.281807
115 1 0.9656 0.875339 0.302187
71 2 0.582379 0.273254 0.379902
150 3 0.88631 0.747178 0.302678
179 1 0.880634 0.745186 0.31222
84 3 0.958683 0.878363 0.312408
58 1 0.558866 0.228069 0.45528
73 2 0.551931 0.220076 0.453127
70 2 0.565941 0.230533 0.435524
77 2 0.656541 0.231381 0.456002
55 1 0.566457 0.233708 0.445807
75 2 0.559868 0.266938 0.387022
52 1 0.57609 0.244746 0.450103
40 3 0.58323 0.250305 0.439097
51 1 0.595448 0.281299 0.42855
48 1 0.592578 0.261378 0.443471
61 2 0.586748 0.268958 0.448636
47 1 0.60069 0.26746 0.432418
62 2 0.598998 0.257188 0.451307
69 2 0.576277 0.26466 0.42815
114 1 0.580046 0.284607 0.427001
49 1 0.600683 0.258093 0.420567
43 3 0.571547 0.27327 0.427697
41 3 0.589077 0.259555 0.41125
56 1 0.580731 0.268897 0.389617
53 1 0.592511 0.266117 0.399067
45 3 0.604167 0.269969 0.394962
63 2 0.609827 0.259283 0.414706
59 1 0.568346 0.265478 0.393471
76 2 0.566255 0.261039 0.403087
64 2 0.600742 0.247793 0.424293
118 1 0.603933 0.293831 0.433132
116 1 0.604332 0.289786 0.418639
146 2 0.598486 0.30288 0.435758
147 2 0.612729 0.292048 0.439257
83 3 0.577169 0.296958 0.425318
68 2 0.599084 0.295871 0.4114
50 1 0.614786 0.268315 0.437509
144 2 0.613392 0.285345 0.414733
65 2 0.615385 0.273947 0.446849
42 3 0.620618 0.25454 0.439857
54 1 0.633418 0.255253 0.446063
66 2 0.621354 0.273586 0.430579
57 1 0.639715 0.241409 0.448221
60 1 0.651682 0.240818 0.45417
46 3 0.639766 0.265781 0.449969
72 2 0.634613 0.232533 0.445041
78 2 0.656957 0.249618 0.457317
186 1 0.95698 0.888186 0.471659
192 2 0.95333 0.91625 0.473837
107 1 0.919944 0.98091 0.483741
74 2 0.559213 0.231295 0.465533
44 3 0.576903 0.247927 0.462611
191 2 0.959149 0.867052 0.545935
201 2 0.920997 0.871443 0.520684
193 2 0.935582 0.866707 0.5111
165 1 0.931473 0.875016 0.507441
172 1 0.964764 0.899335 0.465549
164 1 0.954413 0.906821 0.474425
174 1 0.95259 0.876387 0.478935
197 2 0.9852 0.914554 0.50882
196 2 0.953489 0.927796 0.517481
158 1 0.950597 0.900777 0.487309
168 1 0.960631 0.92015 0.523923
162 1 0.963772 0.905847 0.522828
170 1 0.971494 0.899184 0.533352
198 2 0.976239 0.889704 0.532015
96 1 0.980609 0.918983 0.500309
199 2 0.917987 0.887896 0.513211
156 1 0.956893 0.896961 0.513511
157 1 0.951591 0.883878 0.512984
160 1 0.946394 0.890485 0.490061
166 1 0.957473 0.866212 0.484678
194 2 0.952579 0.8667 0.495011
161 1 0.961827 0.900935 0.500795
163 1 0.950907 0.872568 0.524023
159 1 0.941993 0.884156 0.501819
171 1 0.953808 0.872459 0.537407
173 1 0.921606 0.87949 0.513841
169 1 0.969755 0.910285 0.494866
178 1 0.973769 0.907641 0.544841
112 1 0.752811 0.977325 0.503458
81 3 0.747353 0.963621 0.499763
205 2 0.960776 0.930407 0.505172
177 1 0.967544 0.924061 0.498464
206 2 0.979856 0.903082 0.551025
176 1 0.963172 0.927945 0.535122
151 3 0.958352 0.925391 0.556576
204 2 0.963198 0.940246 0.535791
180 1 0.964082 0.919067 0.546406
203 2 0.951255 0.316511 0.750702
