ITEM: TIMESTEP
1390000
ITEM: NUMBER OF ATOMS
197
ITEM: BOX BOUNDS ff ff ff
-5.0000000000000000e+01 5.0000000000000000e+01
-5.0000000000000000e+01 5.0000000000000000e+01
-5.0000000000000000e+01 5.0000000000000000e+01
ITEM: ATOMS id type xs ys zs
45 3 0.709964 0.593795 0.459019
44 3 0.726967 0.656513 0.460547
74 2 0.739409 0.678377 0.459636
63 2 0.704646 0.617113 0.465962
76 2 0.711447 0.570571 0.460773
53 1 0.709814 0.593542 0.471965
71 2 0.704896 0.57947 0.488737
59 1 0.708019 0.569527 0.470734
75 2 0.704959 0.559528 0.47375
56 1 0.707434 0.580094 0.478828
41 3 0.71067 0.604399 0.481454
144 2 0.70288 0.614735 0.506184
116 1 0.712759 0.618634 0.507656
68 2 0.720873 0.611708 0.511345
78 2 0.663046 0.628601 0.52718
46 3 0.675691 0.619754 0.507446
60 1 0.665431 0.638952 0.525277
54 1 0.678228 0.6321 0.505152
77 2 0.662239 0.645809 0.532282
57 1 0.672694 0.643118 0.514771
72 2 0.672757 0.654015 0.512662
42 3 0.687346 0.638195 0.496183
66 2 0.688152 0.629735 0.477956
50 1 0.693751 0.627992 0.486956
61 2 0.703261 0.645452 0.469278
58 1 0.736881 0.681782 0.469222
55 1 0.729403 0.673839 0.477084
70 2 0.726364 0.677906 0.486657
52 1 0.724411 0.660381 0.4727
64 2 0.721167 0.618869 0.470529
62 2 0.717736 0.637883 0.467444
40 3 0.717522 0.653194 0.483196
49 1 0.711056 0.61748 0.474399
48 1 0.711309 0.641674 0.475777
147 2 0.704047 0.639202 0.51033
203 2 0.733176 0.654489 0.517226
65 2 0.690893 0.618369 0.490688
47 1 0.708224 0.629339 0.48392
181 1 0.757353 0.665957 0.511053
207 2 0.759328 0.655993 0.513826
51 1 0.717298 0.628069 0.495532
83 3 0.736921 0.625133 0.481488
118 1 0.71298 0.633164 0.510053
114 1 0.733386 0.628427 0.493487
43 3 0.741237 0.630551 0.505033
69 2 0.750138 0.631662 0.502219
146 2 0.720951 0.637324 0.516406
150 3 0.754324 0.67224 0.524186
208 2 0.749465 0.6652 0.503714
183 1 0.768773 0.672333 0.502481
152 3 0.766228 0.66812 0.488515
175 1 0.732053 0.659713 0.527076
211 2 0.768591 0.683482 0.50192
179 1 0.74212 0.668621 0.531479
215 2 0.75708 0.657772 0.466216
212 2 0.778534 0.670532 0.506544
195 2 0.7139 0.649024 0.532735
218 2 0.756688 0.63535 0.458358
189 1 0.761906 0.637874 0.467639
187 1 0.761663 0.650504 0.47239
185 1 0.766379 0.653831 0.486295
154 3 0.770671 0.644788 0.494343
217 2 0.766224 0.630185 0.473916
73 2 0.741175 0.69078 0.472234
149 2 0.615841 0.547402 0.577083
119 1 0.619176 0.556368 0.573627
148 2 0.611894 0.564334 0.570572
145 2 0.639559 0.551956 0.577814
82 3 0.649497 0.575481 0.567466
139 2 0.662842 0.588747 0.548244
99 1 0.672191 0.619029 0.591068
135 2 0.658285 0.612425 0.575552
111 1 0.662438 0.594556 0.557302
107 1 0.668221 0.610882 0.579798
80 3 0.675532 0.592382 0.564201
109 1 0.677309 0.600732 0.576028
138 2 0.662156 0.605545 0.554009
91 1 0.685689 0.618517 0.595749
113 1 0.649657 0.590817 0.56443
115 1 0.636086 0.57367 0.571363
142 2 0.640231 0.593163 0.559648
143 2 0.649522 0.594786 0.574988
117 1 0.632535 0.559153 0.574247
84 3 0.626616 0.582443 0.572215
201 2 0.721305 0.603919 0.569171
105 1 0.689771 0.598844 0.582094
97 1 0.694134 0.607543 0.592611
133 2 0.695414 0.589345 0.579831
125 2 0.703032 0.605896 0.598383
202 2 0.658103 0.643338 0.557177
174 1 0.668689 0.646068 0.556334
200 2 0.663697 0.66647 0.55154
172 1 0.672127 0.659603 0.553751
164 1 0.68569 0.663178 0.552387
194 2 0.67629 0.626395 0.561502
166 1 0.678766 0.636467 0.55898
193 2 0.697924 0.611286 0.564733
127 2 0.666352 0.62769 0.593676
104 1 0.679625 0.659339 0.587069
96 1 0.684786 0.646768 0.590889
132 2 0.678644 0.661728 0.576382
90 1 0.684337 0.642374 0.604339
79 3 0.668379 0.680811 0.591692
110 1 0.663175 0.68944 0.602678
108 1 0.673719 0.668443 0.596359
160 1 0.692269 0.640899 0.558768
136 2 0.654853 0.695502 0.597332
67 2 0.688279 0.687712 0.614482
137 2 0.658944 0.683033 0.609881
106 1 0.674505 0.664376 0.610156
98 1 0.679923 0.651943 0.614085
134 2 0.6713 0.670423 0.618129
173 1 0.718894 0.61365 0.566567
199 2 0.740105 0.617779 0.564968
171 1 0.730192 0.622204 0.565188
124 2 0.688711 0.63978 0.583717
165 1 0.70582 0.618355 0.564235
159 1 0.704068 0.632236 0.562049
158 1 0.695994 0.654166 0.555931
167 1 0.721216 0.656448 0.535529
192 2 0.687929 0.672811 0.548914
196 2 0.702031 0.678328 0.565568
85 1 0.690161 0.628304 0.606786
168 1 0.705365 0.674843 0.574838
176 1 0.702625 0.680774 0.587178
121 2 0.711608 0.630764 0.587501
129 2 0.73567 0.630964 0.59231
93 1 0.71488 0.629757 0.598127
156 1 0.71099 0.65572 0.559182
162 1 0.712588 0.663048 0.573711
180 1 0.709064 0.674913 0.598656
157 1 0.715447 0.640814 0.560586
101 1 0.728781 0.630058 0.600756
170 1 0.719027 0.65694 0.584559
178 1 0.717512 0.663621 0.597185
198 2 0.72463 0.648637 0.583309
161 1 0.720639 0.661679 0.548744
169 1 0.730201 0.671211 0.553169
197 2 0.730503 0.675483 0.564166
205 2 0.748256 0.681202 0.546896
177 1 0.740698 0.674579 0.544245
191 2 0.737003 0.642304 0.563187
163 1 0.728307 0.635862 0.56249
206 2 0.723279 0.660146 0.605566
151 3 0.707275 0.680753 0.611627
87 1 0.705819 0.628947 0.608732
112 1 0.67351 0.69907 0.609118
140 2 0.679642 0.703813 0.600836
141 2 0.668454 0.707851 0.614918
204 2 0.697918 0.690307 0.587112
128 2 0.663394 0.619234 0.645742
100 1 0.673019 0.620684 0.641784
130 2 0.682917 0.620209 0.660519
120 2 0.665726 0.620998 0.621038
92 1 0.674452 0.622219 0.627742
102 1 0.684559 0.621324 0.649788
94 1 0.697624 0.623532 0.645028
122 2 0.706689 0.623381 0.650915
81 3 0.68132 0.691735 0.6188
126 2 0.679946 0.650086 0.625063
86 1 0.686843 0.625259 0.622137
213 2 0.698247 0.684978 0.638234
155 3 0.679707 0.668853 0.639154
186 1 0.688668 0.663829 0.647122
188 1 0.685189 0.654083 0.657961
219 2 0.664758 0.653276 0.651922
190 1 0.672502 0.649708 0.658179
220 2 0.669234 0.644096 0.666528
103 1 0.732485 0.63188 0.61434
131 2 0.742987 0.632126 0.61542
216 2 0.69302 0.649361 0.664362
123 2 0.727094 0.633202 0.635334
210 2 0.715128 0.663826 0.621912
88 1 0.697776 0.626189 0.630909
209 2 0.697686 0.665309 0.620594
182 1 0.707182 0.670999 0.622921
153 3 0.702898 0.666112 0.646892
184 1 0.705691 0.67673 0.636953
214 2 0.715746 0.680983 0.639771
89 1 0.709386 0.629856 0.622283
95 1 0.723465 0.631962 0.625253
3 3 0.210175 0.23624 0.691038
27 2 0.20164 0.225239 0.679233
11 1 0.208526 0.234167 0.679055
30 2 0.0840234 0.124533 0.79115
4 3 0.0838881 0.132706 0.796904
6 3 0.0429699 0.134462 0.892544
10 1 0.0459877 0.190098 0.904445
8 1 0.0421606 0.192402 0.916442
7 3 0.21538 0.582632 0.959955
15 1 0.211434 0.593462 0.953963
14 1 0.0406877 0.124303 0.884116
38 2 0.194725 0.590845 0.924948
33 2 0.202284 0.609439 0.944791
18 1 0.206522 0.601471 0.943957
39 2 0.213411 0.588909 0.925707
21 1 0.204933 0.594041 0.930534
