ITEM: TIMESTEP
40000
ITEM: NUMBER OF ATOMS
220
ITEM: BOX BOUNDS ff ff ff
-5.0000000000000000e+01 5.0000000000000000e+01
-5.0000000000000000e+01 5.0000000000000000e+01
-5.0000000000000000e+01 5.0000000000000000e+01
ITEM: ATOMS id type xs ys zs
38 2 0.566092 0.60265 0.516619
21 1 0.562275 0.604683 0.526479
39 2 0.559446 0.614868 0.528474
149 2 0.679125 0.56294 0.530492
35 2 0.568342 0.526033 0.595041
19 1 0.569942 0.533259 0.60287
4 3 0.523059 0.577328 0.594809
30 2 0.514936 0.581957 0.591062
23 2 0.538084 0.55879 0.575542
12 1 0.534712 0.585154 0.59146
25 2 0.519018 0.5744 0.571482
8 1 0.539473 0.580743 0.576882
10 1 0.52724 0.580041 0.567071
24 2 0.530206 0.574505 0.558154
6 3 0.507289 0.59414 0.582069
28 2 0.532413 0.595806 0.591563
2 3 0.522627 0.593591 0.562843
14 1 0.512051 0.598842 0.570916
17 1 0.506647 0.611894 0.565404
220 2 0.529801 0.550956 0.597191
32 2 0.510933 0.61606 0.556435
190 1 0.527008 0.543932 0.604893
219 2 0.517073 0.539805 0.604198
188 1 0.535339 0.540511 0.61476
217 2 0.588563 0.609833 0.54066
5 3 0.556688 0.541156 0.580052
29 2 0.542726 0.58331 0.598608
9 1 0.545759 0.56642 0.576874
27 2 0.545179 0.601178 0.570955
22 2 0.55249 0.564928 0.568432
13 1 0.558052 0.55009 0.589277
1 3 0.553327 0.563617 0.589446
11 1 0.549765 0.591262 0.571426
3 3 0.554798 0.587464 0.557915
33 2 0.563988 0.584933 0.533606
18 1 0.561027 0.595089 0.535666
15 1 0.555252 0.598915 0.549279
7 3 0.55165 0.611018 0.551808
26 2 0.558265 0.592112 0.578175
205 2 0.560732 0.57207 0.612403
183 1 0.584996 0.580117 0.58103
207 2 0.580348 0.566156 0.597021
211 2 0.59575 0.57879 0.580528
212 2 0.581011 0.573532 0.573319
208 2 0.56886 0.579065 0.595503
181 1 0.579514 0.576836 0.595007
150 3 0.586039 0.584043 0.606342
61 2 0.557158 0.600463 0.610529
152 3 0.581771 0.59439 0.57747
154 3 0.590479 0.589463 0.555146
185 1 0.58525 0.597325 0.563952
187 1 0.581868 0.611894 0.560606
48 1 0.553829 0.610796 0.6114
40 3 0.542751 0.613595 0.601639
16 1 0.565648 0.545841 0.601825
80 3 0.659583 0.56106 0.60452
138 2 0.664028 0.580481 0.597834
111 1 0.669551 0.57145 0.600454
133 2 0.641881 0.545587 0.61316
82 3 0.672795 0.56875 0.575312
113 1 0.678857 0.567242 0.589013
145 2 0.665814 0.569919 0.549946
142 2 0.68217 0.556895 0.590332
117 1 0.675459 0.565323 0.551214
115 1 0.68117 0.563065 0.565261
119 1 0.682654 0.561559 0.540573
143 2 0.688091 0.573132 0.589103
139 2 0.675324 0.574132 0.609327
148 2 0.692335 0.556989 0.541638
84 3 0.692323 0.556719 0.566733
70 2 0.52544 0.620769 0.583169
20 1 0.496619 0.618258 0.571656
37 2 0.492129 0.614271 0.58059
36 2 0.492641 0.627569 0.567949
73 2 0.530643 0.631755 0.561665
55 1 0.535569 0.623378 0.580453
146 2 0.529173 0.643761 0.616437
218 2 0.582043 0.626327 0.545108
189 1 0.584346 0.616283 0.548213
44 3 0.559173 0.624294 0.586859
74 2 0.548397 0.631857 0.566034
52 1 0.547225 0.620488 0.589968
215 2 0.577584 0.618379 0.568047
58 1 0.53832 0.629299 0.568804
62 2 0.562482 0.61705 0.609192
186 1 0.530306 0.530386 0.625203
155 3 0.518308 0.525727 0.62406
213 2 0.524672 0.520727 0.647823
153 3 0.540017 0.527766 0.635324
184 1 0.53479 0.517604 0.645058
151 3 0.541405 0.526094 0.667573
214 2 0.533455 0.508339 0.639417
210 2 0.54035 0.505793 0.662365
182 1 0.543349 0.515135 0.657603
206 2 0.5603 0.532404 0.647175
209 2 0.553882 0.514258 0.65503
34 2 0.575038 0.529693 0.611691
122 2 0.596102 0.536932 0.663001
130 2 0.582576 0.534307 0.642091
180 1 0.547986 0.538276 0.664184
178 1 0.557488 0.540377 0.653821
57 1 0.525474 0.570205 0.62414
60 1 0.514719 0.562584 0.626395
54 1 0.524173 0.585477 0.626148
78 2 0.505261 0.566787 0.629398
46 3 0.512628 0.590044 0.629938
199 2 0.521685 0.599744 0.66096
204 2 0.536774 0.546819 0.68059
77 2 0.515042 0.551856 0.62523
66 2 0.530305 0.608989 0.637086
50 1 0.534214 0.607967 0.626946
72 2 0.534851 0.56596 0.620994
171 1 0.531722 0.59838 0.664679
191 2 0.536859 0.58346 0.649688
173 1 0.536054 0.605892 0.676009
201 2 0.529227 0.612804 0.680706
216 2 0.545312 0.544607 0.615418
128 2 0.585253 0.550184 0.623243
120 2 0.602527 0.568266 0.623821
100 1 0.591546 0.551255 0.631924
42 3 0.53608 0.592519 0.624153
92 1 0.601292 0.561564 0.632218
179 1 0.578752 0.58249 0.618508
31 2 0.567404 0.552985 0.609746
176 1 0.543967 0.548728 0.672786
63 2 0.556767 0.598393 0.637432
163 1 0.540315 0.589223 0.658096
165 1 0.549043 0.604372 0.681305
197 2 0.551902 0.569986 0.63586
196 2 0.546127 0.569488 0.67741
203 2 0.594895 0.593714 0.627386
102 1 0.589883 0.542209 0.642849
175 1 0.585691 0.588461 0.629251
177 1 0.566266 0.576131 0.620704
169 1 0.561262 0.574999 0.633856
198 2 0.570625 0.554971 0.644757
157 1 0.553411 0.587777 0.663084
170 1 0.563197 0.553123 0.652358
159 1 0.557694 0.595326 0.674546
168 1 0.549261 0.561425 0.670989
161 1 0.569104 0.579913 0.644588
156 1 0.564197 0.577802 0.658853
158 1 0.575256 0.580274 0.669068
160 1 0.571516 0.590956 0.677977
162 1 0.558707 0.563651 0.660655
164 1 0.587318 0.573199 0.67083
166 1 0.580424 0.595622 0.688038
167 1 0.581165 0.586943 0.642269
172 1 0.59591 0.577528 0.68123
174 1 0.592716 0.588823 0.68936
192 2 0.589951 0.564861 0.664486
195 2 0.587005 0.590795 0.650431
200 2 0.605134 0.572191 0.682975
94 1 0.597507 0.543555 0.654617
88 1 0.60751 0.553689 0.65474
104 1 0.606965 0.603513 0.661041
86 1 0.609578 0.562495 0.643548
132 2 0.603385 0.606872 0.670622
45 3 0.577649 0.611272 0.654275
49 1 0.557628 0.609101 0.635645
108 1 0.606492 0.612072 0.649817
64 2 0.568069 0.610698 0.632881
96 1 0.612172 0.590612 0.659675
124 2 0.612603 0.58416 0.668241
193 2 0.552395 0.60976 0.690048
106 1 0.611054 0.607655 0.637124
90 1 0.616824 0.586211 0.647037
98 1 0.616383 0.594649 0.635735
134 2 0.610533 0.614217 0.628578
105 1 0.641782 0.554902 0.61859
123 2 0.613009 0.543658 0.681945
131 2 0.630442 0.554241 0.696545
89 1 0.617747 0.556819 0.665089
95 1 0.619297 0.551582 0.678246
125 2 0.625157 0.549484 0.630961
109 1 0.651199 0.564948 0.615394
85 1 0.621547 0.571686 0.646028
87 1 0.626121 0.56734 0.659976
91 1 0.632296 0.569451 0.63546
97 1 0.63242 0.557081 0.628598
99 1 0.642077 0.579343 0.632815
107 1 0.651663 0.577111 0.622734
121 2 0.641937 0.581528 0.66473
126 2 0.619925 0.591125 0.626144
127 2 0.642122 0.588581 0.638382
135 2 0.659142 0.584568 0.620546
93 1 0.635851 0.573281 0.66823
101 1 0.637187 0.56831 0.681463
103 1 0.629094 0.557633 0.686372
129 2 0.644492 0.572806 0.687987
147 2 0.522193 0.627141 0.615191
65 2 0.526635 0.611516 0.61995
118 1 0.52885 0.633754 0.620585
144 2 0.523719 0.624575 0.640205
116 1 0.529905 0.63223 0.635641
47 1 0.548108 0.613607 0.62499
68 2 0.53093 0.641191 0.641663
69 2 0.555264 0.658188 0.632385
83 3 0.566562 0.635121 0.62494
41 3 0.554708 0.616645 0.64838
53 1 0.566524 0.617503 0.656254
56 1 0.565126 0.627361 0.667927
59 1 0.576043 0.630575 0.674957
71 2 0.555488 0.631644 0.670311
75 2 0.575746 0.63752 0.6832
76 2 0.585707 0.626544 0.672459
51 1 0.542903 0.627749 0.626664
137 2 0.592834 0.627428 0.633609
79 3 0.601227 0.625098 0.65277
67 2 0.573451 0.644712 0.642617
110 1 0.59928 0.633061 0.640413
81 3 0.580313 0.647723 0.648675
114 1 0.554386 0.638512 0.626962
112 1 0.593764 0.647325 0.643185
141 2 0.593922 0.652928 0.63377
43 3 0.548729 0.651094 0.630499
140 2 0.60067 0.652528 0.649881
136 2 0.608873 0.633611 0.635194
194 2 0.577837 0.603945 0.694411
202 2 0.599758 0.592037 0.696892
