ITEM: TIMESTEP
1160000
ITEM: NUMBER OF ATOMS
220
ITEM: BOX BOUNDS ff ff ff
-5.0000000000000000e+01 5.0000000000000000e+01
-5.0000000000000000e+01 5.0000000000000000e+01
-5.0000000000000000e+01 5.0000000000000000e+01
ITEM: ATOMS id type xs ys zs
149 2 0.570138 0.503313 0.529533
35 2 0.544169 0.600138 0.528898
19 1 0.537636 0.598766 0.536583
34 2 0.536502 0.588506 0.539576
28 2 0.569459 0.6225 0.532523
5 3 0.544157 0.622026 0.527678
22 2 0.55769 0.640274 0.53766
139 2 0.551295 0.560289 0.567031
138 2 0.54394 0.545218 0.572253
133 2 0.563674 0.536055 0.597522
105 1 0.555546 0.540107 0.60384
145 2 0.558097 0.510438 0.550291
111 1 0.551538 0.552189 0.574933
82 3 0.56163 0.531456 0.567149
115 1 0.571207 0.527657 0.557396
119 1 0.573799 0.512202 0.536804
148 2 0.582513 0.518092 0.53358
117 1 0.567469 0.515685 0.548327
80 3 0.547763 0.559038 0.587211
107 1 0.537055 0.554874 0.607347
135 2 0.529741 0.561645 0.603335
165 1 0.519175 0.585759 0.605222
201 2 0.515414 0.579089 0.584645
173 1 0.522909 0.583656 0.591364
159 1 0.528253 0.592414 0.613609
193 2 0.51098 0.581312 0.610467
171 1 0.535688 0.586264 0.586823
199 2 0.538086 0.583966 0.576674
163 1 0.546355 0.589917 0.596327
109 1 0.547694 0.550392 0.59895
142 2 0.570213 0.544849 0.58345
113 1 0.564693 0.544532 0.573672
143 2 0.571768 0.549857 0.567176
84 3 0.582251 0.53373 0.555255
157 1 0.542256 0.593001 0.609117
161 1 0.555543 0.61279 0.618588
156 1 0.551717 0.5981 0.620191
191 2 0.556883 0.59077 0.593207
198 2 0.550703 0.570843 0.617363
170 1 0.560812 0.574976 0.618113
36 2 0.5804 0.580083 0.597236
37 2 0.568334 0.580395 0.584675
20 1 0.57605 0.585024 0.589277
195 2 0.571931 0.609204 0.604971
162 1 0.563533 0.589005 0.61942
6 3 0.562004 0.59994 0.568311
14 1 0.571271 0.605136 0.575451
17 1 0.579025 0.597792 0.586178
32 2 0.586796 0.603242 0.591902
206 2 0.569458 0.555637 0.619033
178 1 0.571063 0.565942 0.619437
180 1 0.584014 0.571188 0.620837
151 3 0.594589 0.561893 0.61929
30 2 0.586754 0.602752 0.542922
4 3 0.584199 0.612187 0.541957
213 2 0.618489 0.554036 0.61046
184 1 0.618234 0.55903 0.620097
16 1 0.535372 0.609411 0.545151
31 2 0.529376 0.609113 0.55418
167 1 0.566147 0.617323 0.610573
29 2 0.563272 0.61295 0.547653
175 1 0.569527 0.630856 0.608853
150 3 0.560869 0.653816 0.610029
203 2 0.578083 0.634001 0.602789
2 3 0.576265 0.618775 0.575125
179 1 0.559867 0.640214 0.613831
10 1 0.567175 0.62733 0.566567
25 2 0.556414 0.624115 0.568109
24 2 0.569241 0.636793 0.572815
8 1 0.570039 0.631293 0.552408
12 1 0.571323 0.619378 0.542958
13 1 0.541874 0.622747 0.540458
1 3 0.544354 0.631713 0.551141
183 1 0.585916 0.663345 0.607376
208 2 0.569189 0.668337 0.597443
11 1 0.582593 0.638566 0.549776
3 3 0.580694 0.651061 0.558645
9 1 0.558002 0.638719 0.547926
23 2 0.557217 0.648184 0.554144
26 2 0.583856 0.643015 0.539774
27 2 0.591311 0.631472 0.551053
181 1 0.57252 0.658702 0.601693
15 1 0.593627 0.656226 0.561942
207 2 0.57494 0.651512 0.593914
7 3 0.605569 0.654342 0.55776
33 2 0.584706 0.67266 0.575681
18 1 0.593752 0.667018 0.572728
21 1 0.605783 0.669463 0.579081
39 2 0.613753 0.664277 0.57534
38 2 0.606759 0.67647 0.587877
211 2 0.592303 0.668843 0.600331
154 3 0.609907 0.671279 0.621863
129 2 0.543427 0.485466 0.624694
93 1 0.538311 0.506046 0.626209
101 1 0.536726 0.492298 0.629805
131 2 0.527441 0.479183 0.645224
103 1 0.52864 0.488881 0.640988
87 1 0.533837 0.516189 0.634932
95 1 0.520898 0.499286 0.64636
89 1 0.523211 0.513141 0.643764
123 2 0.511827 0.49784 0.652523
88 1 0.518366 0.526008 0.650115
122 2 0.498059 0.523563 0.657804
94 1 0.506814 0.529846 0.657497
86 1 0.528354 0.535771 0.647818
121 2 0.545571 0.508453 0.61877
91 1 0.542129 0.539144 0.625678
85 1 0.539605 0.530883 0.638469
97 1 0.551684 0.534639 0.616605
125 2 0.558493 0.5263 0.619183
124 2 0.545912 0.512154 0.655217
132 2 0.566544 0.509004 0.669428
79 3 0.587284 0.521069 0.670652
104 1 0.566263 0.516455 0.662337
108 1 0.576922 0.525626 0.661231
96 1 0.555033 0.518967 0.654997
90 1 0.553602 0.529633 0.644881
98 1 0.564367 0.537804 0.644158
140 2 0.601376 0.53109 0.691306
160 1 0.52788 0.593225 0.628509
194 2 0.509181 0.588165 0.636095
166 1 0.518557 0.591675 0.639162
99 1 0.534261 0.54997 0.620169
174 1 0.522827 0.593161 0.652537
202 2 0.516262 0.591516 0.661258
127 2 0.526079 0.552452 0.625495
102 1 0.506199 0.542034 0.664759
130 2 0.498186 0.545054 0.672034
100 1 0.517176 0.550558 0.663613
120 2 0.536248 0.554672 0.652623
92 1 0.528778 0.547719 0.655134
128 2 0.518022 0.559727 0.669343
197 2 0.540607 0.619548 0.632987
209 2 0.608304 0.576608 0.610655
182 1 0.607466 0.569826 0.619731
196 2 0.577888 0.605149 0.621815
204 2 0.597116 0.588684 0.624067
176 1 0.587489 0.584938 0.621322
168 1 0.576681 0.594525 0.620492
106 1 0.576221 0.535576 0.651902
110 1 0.598146 0.530787 0.669923
136 2 0.602679 0.531377 0.659531
112 1 0.607816 0.532274 0.682386
172 1 0.536167 0.595613 0.655928
200 2 0.541639 0.593448 0.664718
158 1 0.541354 0.597298 0.631757
164 1 0.545568 0.597715 0.645322
210 2 0.608421 0.576294 0.628498
137 2 0.595222 0.541235 0.671248
134 2 0.583871 0.543246 0.651639
81 3 0.61263 0.545767 0.682716
192 2 0.556242 0.600978 0.64614
126 2 0.563639 0.545523 0.637544
116 1 0.599658 0.573941 0.648895
68 2 0.594092 0.565322 0.644399
147 2 0.596183 0.595447 0.645
48 1 0.59658 0.601626 0.675911
40 3 0.598315 0.613975 0.667066
118 1 0.591769 0.586475 0.647391
146 2 0.582078 0.586075 0.643892
62 2 0.586161 0.599277 0.677096
51 1 0.594483 0.58131 0.662355
43 3 0.575622 0.566854 0.661793
47 1 0.603682 0.589243 0.67115
52 1 0.585813 0.620357 0.664303
61 2 0.60023 0.605507 0.685701
114 1 0.583557 0.574499 0.670798
69 2 0.568251 0.565601 0.669729
44 3 0.574058 0.616326 0.667832
83 3 0.581568 0.575765 0.68365
67 2 0.619271 0.546592 0.676182
63 2 0.598889 0.581116 0.692348
49 1 0.607211 0.581958 0.684345
64 2 0.608294 0.571888 0.680519
77 2 0.648313 0.599236 0.620504
141 2 0.615448 0.524144 0.682118
78 2 0.653303 0.606611 0.635712
214 2 0.61634 0.551564 0.627681
155 3 0.627644 0.554399 0.643734
144 2 0.611049 0.573498 0.647519
65 2 0.623646 0.584499 0.663701
50 1 0.616845 0.593286 0.664667
66 2 0.623966 0.600283 0.670305
60 1 0.64627 0.601513 0.629964
219 2 0.643432 0.560672 0.660602
46 3 0.633456 0.615638 0.652218
42 3 0.617021 0.596652 0.650491
186 1 0.633254 0.563415 0.636299
190 1 0.646256 0.569212 0.656303
220 2 0.652921 0.576141 0.661542
216 2 0.645943 0.581997 0.639181
188 1 0.642906 0.572468 0.643778
153 3 0.631309 0.56576 0.622012
54 1 0.629217 0.6046 0.647242
72 2 0.62769 0.591183 0.63067
57 1 0.634164 0.598265 0.634756
169 1 0.547473 0.622331 0.625425
205 2 0.543645 0.643418 0.62742
212 2 0.584819 0.670084 0.61565
152 3 0.595547 0.653243 0.61389
215 2 0.606958 0.637804 0.629322
185 1 0.606592 0.658789 0.620999
187 1 0.611979 0.647072 0.629141
177 1 0.548784 0.635877 0.622036
74 2 0.563639 0.630824 0.647581
73 2 0.575312 0.640814 0.638214
55 1 0.585219 0.631778 0.653678
58 1 0.573801 0.635251 0.647295
70 2 0.593676 0.637592 0.652246
189 1 0.623925 0.647172 0.635501
218 2 0.626903 0.639056 0.642158
217 2 0.630667 0.656182 0.634948
41 3 0.619565 0.585883 0.690756
45 3 0.630505 0.564988 0.683878
71 2 0.641305 0.592285 0.700519
53 1 0.630237 0.576151 0.690316
56 1 0.641543 0.581579 0.699525
75 2 0.658137 0.578895 0.711184
59 1 0.651587 0.574432 0.704292
76 2 0.653315 0.5643 0.703163
