ITEM: TIMESTEP
525000
ITEM: NUMBER OF ATOMS
220
ITEM: BOX BOUNDS ff ff ff
-5.0000000000000000e+01 5.0000000000000000e+01
-5.0000000000000000e+01 5.0000000000000000e+01
-5.0000000000000000e+01 5.0000000000000000e+01
ITEM: ATOMS id type xs ys zs
39 2 0.54196 0.568842 0.519016
38 2 0.555847 0.55753 0.520171
218 2 0.568509 0.591833 0.518182
189 1 0.573756 0.594858 0.527859
21 1 0.548582 0.563421 0.525533
217 2 0.583553 0.59945 0.526468
214 2 0.538439 0.510827 0.617061
155 3 0.536299 0.525328 0.59538
186 1 0.541265 0.533122 0.604393
5 3 0.503557 0.550136 0.605399
25 2 0.515404 0.588198 0.598412
10 1 0.518003 0.589164 0.58777
24 2 0.508675 0.589346 0.582644
8 1 0.527293 0.578199 0.582582
11 1 0.526403 0.577076 0.566905
9 1 0.522636 0.564278 0.58879
26 2 0.526504 0.586926 0.561799
27 2 0.516551 0.573702 0.564099
22 2 0.527078 0.555884 0.583171
23 2 0.51225 0.563244 0.587229
1 3 0.524903 0.562557 0.603119
2 3 0.523646 0.602973 0.586774
6 3 0.506948 0.606771 0.603582
14 1 0.516715 0.611166 0.596162
13 1 0.515344 0.553617 0.609306
7 3 0.528821 0.579447 0.539563
15 1 0.536844 0.571397 0.545655
3 3 0.536601 0.56889 0.559701
30 2 0.541421 0.592382 0.605875
219 2 0.553415 0.541361 0.580605
4 3 0.543462 0.583474 0.601739
18 1 0.547323 0.562323 0.538531
33 2 0.553955 0.555868 0.544172
188 1 0.551259 0.544281 0.60192
190 1 0.555428 0.547394 0.58937
12 1 0.542459 0.580409 0.587864
28 2 0.546141 0.589311 0.582489
215 2 0.559963 0.586468 0.541363
29 2 0.548609 0.571798 0.586306
220 2 0.560806 0.556564 0.587995
183 1 0.582403 0.597368 0.575927
207 2 0.580706 0.581234 0.58978
211 2 0.583768 0.608378 0.576246
212 2 0.592318 0.594901 0.572497
208 2 0.56878 0.5939 0.592098
181 1 0.5793 0.592139 0.590147
150 3 0.587305 0.597342 0.601479
152 3 0.57286 0.592521 0.565167
185 1 0.577037 0.597122 0.552445
187 1 0.56919 0.591943 0.540311
205 2 0.570824 0.575373 0.604263
216 2 0.555783 0.550543 0.609408
40 3 0.550951 0.616749 0.596819
179 1 0.58231 0.59079 0.613402
177 1 0.573324 0.580219 0.613289
62 2 0.569764 0.617937 0.607159
61 2 0.560582 0.604097 0.609312
48 1 0.559109 0.614858 0.608961
154 3 0.586791 0.605268 0.550365
130 2 0.585136 0.540981 0.611072
128 2 0.589825 0.56437 0.602344
100 1 0.594703 0.560585 0.611231
133 2 0.650001 0.565096 0.600373
105 1 0.647972 0.570891 0.609425
80 3 0.669337 0.5789 0.606012
138 2 0.687334 0.590493 0.604227
109 1 0.657916 0.579303 0.614699
111 1 0.681265 0.585773 0.611997
143 2 0.692987 0.56749 0.614157
84 3 0.67306 0.551567 0.61708
17 1 0.520939 0.62566 0.596842
32 2 0.529855 0.629469 0.591668
20 1 0.514655 0.633193 0.605958
36 2 0.516998 0.643446 0.607145
37 2 0.506154 0.629652 0.611681
70 2 0.540412 0.612991 0.574171
55 1 0.549641 0.618046 0.573105
52 1 0.558373 0.620246 0.584948
147 2 0.541228 0.642323 0.609351
73 2 0.547832 0.62062 0.552417
74 2 0.564327 0.626178 0.560522
58 1 0.553888 0.622499 0.561262
44 3 0.570487 0.624974 0.584538
146 2 0.554588 0.654043 0.610113
118 1 0.549213 0.646166 0.61518
213 2 0.524045 0.519827 0.622233
184 1 0.534629 0.518754 0.623489
151 3 0.532882 0.527029 0.647548
210 2 0.533457 0.506639 0.641266
182 1 0.5378 0.516627 0.638331
153 3 0.540292 0.531738 0.618597
209 2 0.548491 0.515504 0.639219
206 2 0.557806 0.530397 0.636909
122 2 0.598022 0.531705 0.630173
123 2 0.613455 0.529306 0.648594
180 1 0.541012 0.538907 0.646625
131 2 0.63197 0.527394 0.666438
95 1 0.619883 0.537252 0.651648
103 1 0.629292 0.536995 0.661965
35 2 0.500237 0.543548 0.626529
34 2 0.511656 0.541515 0.6415
204 2 0.525667 0.549435 0.658285
19 1 0.510031 0.543638 0.63059
16 1 0.519638 0.549486 0.62321
31 2 0.528828 0.552979 0.627477
72 2 0.527514 0.577924 0.625032
77 2 0.503461 0.572934 0.630255
60 1 0.507549 0.583165 0.630146
54 1 0.525002 0.600775 0.628076
78 2 0.500506 0.590593 0.632168
199 2 0.531284 0.606383 0.658018
57 1 0.52044 0.586194 0.627207
42 3 0.537911 0.603744 0.623228
176 1 0.53539 0.55037 0.653117
46 3 0.515545 0.608885 0.631785
196 2 0.539437 0.569831 0.659154
120 2 0.606309 0.579285 0.613012
178 1 0.553728 0.539418 0.641046
171 1 0.539969 0.601396 0.6614
102 1 0.591964 0.547672 0.615976
92 1 0.603976 0.569559 0.617616
173 1 0.544841 0.604598 0.674475
191 2 0.542438 0.589666 0.643515
94 1 0.598943 0.542163 0.626997
63 2 0.558923 0.603631 0.634944
163 1 0.546311 0.59197 0.653051
197 2 0.559417 0.567294 0.624442
203 2 0.595413 0.602864 0.625769
175 1 0.587796 0.595086 0.625965
169 1 0.567083 0.575187 0.624771
198 2 0.571393 0.551148 0.636307
157 1 0.557743 0.585771 0.658011
170 1 0.561523 0.551165 0.640935
159 1 0.56241 0.588164 0.671487
168 1 0.543221 0.561924 0.65334
161 1 0.571596 0.579835 0.636963
156 1 0.565482 0.574675 0.649984
158 1 0.575704 0.571927 0.661378
160 1 0.574179 0.579417 0.673244
162 1 0.556468 0.562302 0.647744
164 1 0.587202 0.563517 0.659845
167 1 0.582859 0.589073 0.637472
172 1 0.595014 0.561346 0.671422
192 2 0.589007 0.557787 0.650808
195 2 0.586955 0.592308 0.646929
88 1 0.607835 0.551032 0.633924
165 1 0.55543 0.597619 0.680087
166 1 0.582773 0.577963 0.684681
200 2 0.602874 0.554582 0.670391
174 1 0.592947 0.568603 0.683444
132 2 0.602256 0.595431 0.673257
193 2 0.558223 0.598463 0.690355
86 1 0.610124 0.564688 0.629323
104 1 0.607075 0.596513 0.6635
124 2 0.611053 0.575202 0.662051
96 1 0.61147 0.584584 0.657135
49 1 0.563198 0.614157 0.633424
64 2 0.573882 0.613108 0.630815
108 1 0.608788 0.609053 0.657192
45 3 0.581328 0.610516 0.656775
202 2 0.599491 0.567023 0.691929
194 2 0.581196 0.58269 0.694116
106 1 0.614276 0.609065 0.643822
201 2 0.539454 0.61224 0.680721
139 2 0.676611 0.592928 0.618188
113 1 0.688719 0.575264 0.619885
148 2 0.655797 0.53799 0.626111
149 2 0.64752 0.540043 0.642007
125 2 0.629926 0.56017 0.614099
97 1 0.636666 0.567881 0.616939
89 1 0.617883 0.549345 0.644475
90 1 0.616054 0.584961 0.64371
98 1 0.617629 0.597207 0.636632
126 2 0.621364 0.597112 0.62626
119 1 0.655233 0.542929 0.635545
115 1 0.672492 0.558456 0.627973
117 1 0.66283 0.553568 0.638839
87 1 0.625625 0.560787 0.647451
101 1 0.63603 0.548729 0.665711
129 2 0.644 0.548468 0.673164
85 1 0.621484 0.571938 0.637279
93 1 0.634045 0.560946 0.658647
135 2 0.662863 0.593527 0.630716
107 1 0.655248 0.586718 0.626782
91 1 0.634197 0.574525 0.629199
99 1 0.643764 0.583873 0.633857
121 2 0.640814 0.569306 0.660135
127 2 0.641934 0.589254 0.643463
145 2 0.661109 0.558182 0.64866
82 3 0.679832 0.570316 0.631346
142 2 0.697182 0.580069 0.624475
65 2 0.535074 0.624395 0.617513
66 2 0.536923 0.621082 0.634122
50 1 0.540883 0.61846 0.624414
69 2 0.58492 0.654712 0.625904
76 2 0.579278 0.61257 0.68103
67 2 0.592342 0.631346 0.642536
81 3 0.598664 0.639163 0.641986
144 2 0.539876 0.642148 0.634668
116 1 0.548436 0.64644 0.629934
83 3 0.582167 0.630139 0.621804
68 2 0.553156 0.655159 0.635789
47 1 0.555391 0.62088 0.622414
41 3 0.562709 0.622631 0.645782
53 1 0.571501 0.61879 0.656491
114 1 0.573551 0.639566 0.621498
43 3 0.575598 0.653499 0.623086
112 1 0.602808 0.642803 0.655458
51 1 0.55822 0.636074 0.622353
56 1 0.567839 0.625966 0.669672
59 1 0.573341 0.621403 0.681186
71 2 0.56098 0.633873 0.669955
140 2 0.593985 0.643963 0.662171
79 3 0.605472 0.620648 0.664764
75 2 0.571415 0.62531 0.690974
141 2 0.607428 0.652571 0.655082
110 1 0.613228 0.632496 0.660569
134 2 0.615715 0.617864 0.638062
137 2 0.620089 0.630126 0.652075
136 2 0.619417 0.636323 0.669114
