ITEM: TIMESTEP
550000
ITEM: NUMBER OF ATOMS
220
ITEM: BOX BOUNDS ff ff ff
-5.0000000000000000e+01 5.0000000000000000e+01
-5.0000000000000000e+01 5.0000000000000000e+01
-5.0000000000000000e+01 5.0000000000000000e+01
ITEM: ATOMS id type xs ys zs
39 2 0.521688 0.604457 0.522859
21 1 0.526885 0.611075 0.529501
218 2 0.559274 0.586465 0.521551
189 1 0.560571 0.591366 0.531047
217 2 0.559621 0.602236 0.531163
38 2 0.528106 0.621006 0.525694
213 2 0.523087 0.52233 0.610307
214 2 0.536591 0.511546 0.607506
184 1 0.533199 0.52082 0.612871
155 3 0.560255 0.518656 0.603407
186 1 0.553382 0.529611 0.602221
219 2 0.579046 0.532186 0.595835
153 3 0.540404 0.532845 0.607638
5 3 0.502072 0.54865 0.594986
25 2 0.512486 0.587048 0.599351
10 1 0.516606 0.590636 0.589667
24 2 0.508125 0.592028 0.583145
8 1 0.526156 0.579941 0.582788
11 1 0.525186 0.580151 0.567043
9 1 0.522062 0.565215 0.586371
26 2 0.515242 0.577629 0.564568
27 2 0.530657 0.572513 0.561983
23 2 0.512802 0.562227 0.58156
1 3 0.52165 0.562366 0.601053
2 3 0.522184 0.60373 0.591826
6 3 0.500209 0.609925 0.60111
13 1 0.511015 0.553269 0.603411
14 1 0.512282 0.612727 0.597611
7 3 0.524783 0.583431 0.539321
22 2 0.528407 0.557813 0.581894
3 3 0.53003 0.592794 0.561432
15 1 0.52847 0.593016 0.547129
215 2 0.56631 0.574029 0.539821
187 1 0.564811 0.584481 0.541577
18 1 0.530625 0.607321 0.541644
33 2 0.535158 0.614331 0.548679
70 2 0.536212 0.61837 0.572977
30 2 0.540987 0.594208 0.602962
12 1 0.541572 0.581258 0.586649
188 1 0.560062 0.542741 0.598013
190 1 0.572883 0.541346 0.595031
28 2 0.545993 0.589793 0.581481
220 2 0.578143 0.549849 0.590799
4 3 0.543427 0.584891 0.600416
29 2 0.546861 0.572245 0.584256
183 1 0.580886 0.593312 0.575743
207 2 0.578923 0.57667 0.588494
211 2 0.575828 0.60288 0.575665
212 2 0.591398 0.594795 0.576446
208 2 0.566046 0.588153 0.591629
181 1 0.577223 0.587074 0.589345
150 3 0.58488 0.591945 0.601287
152 3 0.57726 0.585401 0.563605
185 1 0.567611 0.592086 0.554833
205 2 0.563277 0.573127 0.604804
216 2 0.554979 0.552108 0.596381
128 2 0.587896 0.555561 0.611438
154 3 0.56271 0.603809 0.555787
40 3 0.552136 0.611388 0.594042
48 1 0.561643 0.611976 0.606243
179 1 0.580703 0.584784 0.612989
177 1 0.569266 0.5764 0.613637
62 2 0.56969 0.616286 0.600978
133 2 0.651263 0.551044 0.609649
80 3 0.670445 0.568948 0.611779
105 1 0.648808 0.558948 0.616517
138 2 0.685555 0.581672 0.604624
111 1 0.680017 0.580094 0.614103
139 2 0.674298 0.588863 0.615901
32 2 0.526782 0.629346 0.59163
17 1 0.518411 0.626731 0.597779
20 1 0.513458 0.636775 0.605647
36 2 0.517796 0.646784 0.60549
147 2 0.543717 0.638119 0.605801
37 2 0.503878 0.635655 0.610773
73 2 0.540062 0.638637 0.559163
58 1 0.54789 0.634363 0.565393
55 1 0.545726 0.623711 0.573232
74 2 0.557073 0.640151 0.567512
44 3 0.56774 0.625696 0.583463
52 1 0.556462 0.619433 0.583461
146 2 0.555827 0.650058 0.602746
118 1 0.552709 0.642575 0.609698
69 2 0.588936 0.649647 0.608736
43 3 0.579847 0.650185 0.612284
35 2 0.492769 0.536863 0.612189
210 2 0.53149 0.509332 0.63042
151 3 0.531532 0.529146 0.638247
130 2 0.585729 0.533056 0.62347
182 1 0.535436 0.519051 0.627955
209 2 0.546667 0.518493 0.627544
206 2 0.55892 0.531888 0.62898
122 2 0.596652 0.529333 0.644941
102 1 0.592492 0.540622 0.627352
94 1 0.598665 0.538582 0.639829
123 2 0.611617 0.530192 0.666183
148 2 0.6687 0.537286 0.646383
149 2 0.659964 0.544164 0.66163
119 1 0.666606 0.546106 0.653133
131 2 0.630155 0.534562 0.683177
95 1 0.618202 0.539048 0.666005
34 2 0.501724 0.532033 0.627473
19 1 0.500954 0.538015 0.61905
16 1 0.511045 0.54644 0.617016
77 2 0.503208 0.575819 0.623455
72 2 0.526611 0.579368 0.628078
60 1 0.507764 0.585602 0.622625
54 1 0.526066 0.601379 0.624088
78 2 0.501182 0.593317 0.620125
199 2 0.531195 0.60373 0.653333
57 1 0.520637 0.587243 0.625586
46 3 0.516708 0.610191 0.622937
204 2 0.526445 0.546128 0.655048
31 2 0.518965 0.548433 0.624007
42 3 0.540174 0.602803 0.624535
176 1 0.536343 0.547316 0.65048
61 2 0.564835 0.60216 0.609402
100 1 0.59321 0.552729 0.620059
120 2 0.604763 0.570227 0.617127
171 1 0.539829 0.599845 0.658082
92 1 0.602919 0.562186 0.623914
180 1 0.542056 0.538182 0.641197
191 2 0.542384 0.585889 0.642522
173 1 0.545091 0.605339 0.670178
86 1 0.610071 0.560372 0.635624
178 1 0.555335 0.538882 0.63588
196 2 0.540708 0.564178 0.662599
63 2 0.562566 0.604006 0.633423
163 1 0.54662 0.589074 0.651655
197 2 0.555951 0.565911 0.62757
203 2 0.595796 0.595541 0.623215
175 1 0.588245 0.587883 0.623989
169 1 0.564692 0.571872 0.626382
198 2 0.573741 0.551499 0.636142
157 1 0.558215 0.583084 0.657438
170 1 0.563516 0.54948 0.640195
159 1 0.563003 0.588828 0.669616
168 1 0.544038 0.557706 0.654727
161 1 0.572383 0.575006 0.637672
156 1 0.566013 0.571156 0.651851
158 1 0.576848 0.570269 0.662717
160 1 0.575078 0.580545 0.672566
162 1 0.557369 0.558719 0.649085
164 1 0.587907 0.561469 0.66381
167 1 0.583896 0.582989 0.636583
172 1 0.596719 0.563266 0.674649
192 2 0.590452 0.555494 0.655386
195 2 0.590516 0.586219 0.644645
88 1 0.607543 0.548533 0.644185
165 1 0.556523 0.599394 0.676286
166 1 0.583959 0.582493 0.683492
200 2 0.605369 0.556423 0.675142
174 1 0.595432 0.57393 0.683922
132 2 0.609542 0.601794 0.673486
104 1 0.611801 0.599296 0.663146
108 1 0.612275 0.608878 0.652646
201 2 0.539456 0.614412 0.673683
124 2 0.614237 0.579095 0.666668
96 1 0.614055 0.586272 0.658644
106 1 0.614628 0.605724 0.639101
193 2 0.560846 0.603256 0.685322
45 3 0.58266 0.606624 0.654258
64 2 0.577569 0.609601 0.627775
134 2 0.61537 0.614475 0.63212
143 2 0.697709 0.570935 0.622564
109 1 0.657632 0.569885 0.618232
84 3 0.681068 0.551676 0.629183
125 2 0.630186 0.549364 0.622803
97 1 0.636885 0.55814 0.623959
103 1 0.628113 0.541887 0.675422
89 1 0.616697 0.548769 0.655773
117 1 0.670377 0.558572 0.650511
113 1 0.690388 0.578638 0.625703
87 1 0.624953 0.560563 0.654469
126 2 0.620259 0.589165 0.624754
101 1 0.635336 0.554048 0.675817
107 1 0.654478 0.580721 0.626474
90 1 0.617704 0.582568 0.645045
98 1 0.617111 0.592218 0.634907
115 1 0.678422 0.56112 0.637764
129 2 0.642104 0.555272 0.684392
85 1 0.621551 0.568027 0.641596
93 1 0.634533 0.562812 0.664383
135 2 0.661758 0.588555 0.628059
91 1 0.633802 0.568955 0.63216
99 1 0.642374 0.580123 0.633936
121 2 0.641166 0.570881 0.663861
127 2 0.640751 0.587622 0.641728
145 2 0.668325 0.566756 0.657127
82 3 0.68341 0.574615 0.638215
142 2 0.696299 0.587356 0.628241
65 2 0.538292 0.621337 0.615869
66 2 0.542726 0.622341 0.632273
144 2 0.545738 0.642379 0.631148
50 1 0.544747 0.617182 0.623304
116 1 0.553711 0.645287 0.624107
68 2 0.55803 0.654415 0.626997
76 2 0.584361 0.613268 0.677874
49 1 0.567579 0.612862 0.630127
67 2 0.589873 0.652419 0.633259
81 3 0.598309 0.653641 0.637133
83 3 0.587299 0.627521 0.617584
47 1 0.559198 0.61905 0.619132
41 3 0.567939 0.622209 0.642122
53 1 0.575091 0.616765 0.653266
114 1 0.578298 0.636516 0.615951
112 1 0.602264 0.645491 0.648476
51 1 0.562942 0.633744 0.617564
56 1 0.572129 0.625194 0.665782
59 1 0.577514 0.621382 0.677353
71 2 0.56483 0.632774 0.665376
79 3 0.609676 0.622608 0.656475
140 2 0.593932 0.645315 0.655366
137 2 0.598311 0.625999 0.639017
141 2 0.610117 0.650348 0.653191
110 1 0.606083 0.630806 0.644885
75 2 0.575394 0.626424 0.686506
136 2 0.615039 0.6304 0.638153
202 2 0.602706 0.574256 0.691573
194 2 0.581842 0.589268 0.691875
