ITEM: TIMESTEP
520000
ITEM: NUMBER OF ATOMS
220
ITEM: BOX BOUNDS ff ff ff
-5.0000000000000000e+01 5.0000000000000000e+01
-5.0000000000000000e+01 5.0000000000000000e+01
-5.0000000000000000e+01 5.0000000000000000e+01
ITEM: ATOMS id type xs ys zs
39 2 0.564274 0.578742 0.535292
21 1 0.569455 0.572558 0.543001
38 2 0.578597 0.568774 0.539928
218 2 0.571365 0.616051 0.522875
189 1 0.577069 0.616247 0.531389
217 2 0.585553 0.622933 0.53221
213 2 0.533662 0.520326 0.617493
155 3 0.55055 0.521794 0.592594
186 1 0.552792 0.531779 0.600627
214 2 0.54752 0.511359 0.612094
153 3 0.550878 0.531465 0.61478
5 3 0.509596 0.56845 0.614256
25 2 0.509731 0.582205 0.597024
10 1 0.514359 0.583934 0.587549
24 2 0.506648 0.583016 0.579356
8 1 0.526005 0.573369 0.586381
11 1 0.531072 0.573628 0.571636
9 1 0.521887 0.559192 0.591146
26 2 0.53168 0.584589 0.570131
27 2 0.523792 0.570748 0.563935
22 2 0.526538 0.553629 0.58301
23 2 0.511033 0.557806 0.590407
1 3 0.526851 0.554254 0.604343
2 3 0.517348 0.598591 0.587257
6 3 0.497707 0.604384 0.600825
14 1 0.509004 0.607237 0.594983
70 2 0.539299 0.608185 0.575242
7 3 0.544365 0.582415 0.549587
15 1 0.549251 0.572923 0.556907
3 3 0.543512 0.566468 0.568531
18 1 0.563461 0.568265 0.554122
33 2 0.567956 0.560985 0.560946
30 2 0.533765 0.594598 0.605574
219 2 0.563545 0.536972 0.576778
188 1 0.560483 0.544344 0.595701
190 1 0.565239 0.545158 0.583452
12 1 0.538865 0.577617 0.59472
4 3 0.534792 0.584652 0.606506
28 2 0.544504 0.584384 0.588212
215 2 0.56498 0.601451 0.541477
29 2 0.545242 0.568717 0.59744
220 2 0.570282 0.553718 0.581089
183 1 0.584388 0.602225 0.577778
207 2 0.578881 0.582149 0.587341
211 2 0.584727 0.612742 0.580914
212 2 0.594516 0.600538 0.574202
208 2 0.56864 0.595743 0.591377
181 1 0.579335 0.593103 0.58947
150 3 0.586755 0.594796 0.602261
152 3 0.576303 0.600935 0.565046
185 1 0.582799 0.607428 0.554298
187 1 0.574097 0.608043 0.541364
205 2 0.563874 0.578022 0.604095
128 2 0.588737 0.562288 0.597166
130 2 0.580079 0.542316 0.608464
100 1 0.592652 0.559847 0.606883
102 1 0.587269 0.548029 0.612942
154 3 0.594358 0.613192 0.554653
92 1 0.602478 0.568083 0.613502
120 2 0.605738 0.577235 0.608845
216 2 0.561797 0.552336 0.602796
55 1 0.548016 0.613808 0.576526
40 3 0.544478 0.611524 0.600603
179 1 0.580086 0.589397 0.613546
177 1 0.568579 0.581018 0.613282
52 1 0.553223 0.616879 0.590788
62 2 0.562225 0.612201 0.612069
133 2 0.645087 0.555325 0.59539
125 2 0.625649 0.554684 0.610407
105 1 0.645122 0.561316 0.604858
80 3 0.666534 0.568823 0.598977
138 2 0.682191 0.580935 0.59419
97 1 0.633928 0.560906 0.612906
109 1 0.656388 0.569015 0.608911
139 2 0.673028 0.586914 0.608374
111 1 0.677412 0.57811 0.603217
17 1 0.514637 0.621353 0.596502
32 2 0.524174 0.623294 0.591741
20 1 0.508439 0.629814 0.604119
36 2 0.513288 0.639146 0.60733
37 2 0.499018 0.626513 0.608811
147 2 0.538365 0.640862 0.607603
73 2 0.550319 0.61962 0.556078
74 2 0.562524 0.625975 0.567029
58 1 0.55382 0.619762 0.566036
44 3 0.564372 0.622732 0.593166
146 2 0.553435 0.650114 0.605029
69 2 0.584936 0.647425 0.621704
184 1 0.544359 0.518916 0.619318
151 3 0.541417 0.521622 0.644576
210 2 0.542615 0.503304 0.633812
182 1 0.546834 0.513564 0.633949
209 2 0.557431 0.512386 0.635443
206 2 0.564553 0.532143 0.63197
180 1 0.548028 0.534344 0.646138
123 2 0.602058 0.529651 0.651618
122 2 0.588636 0.534128 0.629672
131 2 0.616409 0.530796 0.672018
178 1 0.559228 0.538387 0.638353
148 2 0.669347 0.537125 0.645743
13 1 0.519412 0.560095 0.614903
204 2 0.533769 0.540097 0.659662
35 2 0.50931 0.563999 0.640124
19 1 0.519215 0.559517 0.6399
16 1 0.525209 0.556301 0.628651
34 2 0.523956 0.557552 0.649184
31 2 0.534817 0.551047 0.629606
72 2 0.514797 0.584727 0.629034
77 2 0.490509 0.584029 0.633231
60 1 0.496462 0.593243 0.633062
54 1 0.514844 0.607636 0.631817
78 2 0.490944 0.602571 0.634606
199 2 0.523267 0.602958 0.653465
57 1 0.509057 0.593568 0.630531
201 2 0.530835 0.612499 0.674105
171 1 0.53249 0.598833 0.656903
42 3 0.528333 0.607729 0.627195
173 1 0.536891 0.604319 0.669604
191 2 0.536802 0.584067 0.641667
61 2 0.549521 0.600936 0.618104
48 1 0.551686 0.610689 0.614177
176 1 0.541961 0.543727 0.654738
94 1 0.592415 0.543649 0.624924
95 1 0.609776 0.537476 0.652649
196 2 0.543284 0.56253 0.665402
63 2 0.552259 0.606542 0.642114
163 1 0.540012 0.588662 0.650448
197 2 0.554703 0.570147 0.625973
203 2 0.595052 0.599058 0.625282
175 1 0.5865 0.592582 0.62574
169 1 0.563485 0.576435 0.625409
198 2 0.572932 0.554241 0.633256
157 1 0.552527 0.58519 0.655931
170 1 0.56461 0.551467 0.639702
159 1 0.556846 0.59127 0.668218
168 1 0.547196 0.556693 0.656863
161 1 0.569192 0.580055 0.637653
156 1 0.562776 0.574935 0.650782
158 1 0.573277 0.575111 0.662641
160 1 0.570174 0.585522 0.672097
162 1 0.558195 0.560421 0.649003
164 1 0.585018 0.567255 0.66376
167 1 0.581139 0.587816 0.637761
172 1 0.592866 0.569006 0.67558
192 2 0.587845 0.560501 0.655848
195 2 0.586659 0.590752 0.646656
88 1 0.603208 0.55101 0.631005
165 1 0.548697 0.600384 0.67567
166 1 0.579129 0.588514 0.682719
200 2 0.601619 0.562268 0.676484
174 1 0.590115 0.579642 0.684583
132 2 0.603542 0.595923 0.665915
193 2 0.551542 0.603136 0.685701
89 1 0.611485 0.54767 0.642922
86 1 0.608052 0.563079 0.625569
104 1 0.608008 0.59578 0.656342
124 2 0.608166 0.574052 0.65666
96 1 0.611185 0.583113 0.65134
194 2 0.576588 0.596427 0.689228
49 1 0.556628 0.615543 0.637721
64 2 0.566967 0.612626 0.635738
45 3 0.575275 0.611347 0.657628
76 2 0.587199 0.623694 0.676468
103 1 0.618115 0.538251 0.663937
90 1 0.617965 0.581874 0.639136
108 1 0.611135 0.607253 0.649314
126 2 0.62724 0.593269 0.622618
149 2 0.668067 0.545653 0.661992
119 1 0.670671 0.546154 0.651033
84 3 0.683007 0.546628 0.623245
115 1 0.681833 0.556806 0.631122
117 1 0.676183 0.557128 0.645521
87 1 0.621814 0.557751 0.644432
101 1 0.628162 0.548481 0.66585
129 2 0.635116 0.548643 0.674588
85 1 0.620837 0.567804 0.633079
93 1 0.63082 0.55756 0.655197
98 1 0.621623 0.593576 0.632169
135 2 0.664416 0.582438 0.623505
107 1 0.6559 0.576943 0.620575
91 1 0.633293 0.567984 0.625316
99 1 0.644245 0.576699 0.628229
121 2 0.638826 0.56473 0.655535
127 2 0.643454 0.582626 0.637315
145 2 0.677147 0.566527 0.650669
113 1 0.687444 0.571481 0.612797
82 3 0.683104 0.570316 0.627193
106 1 0.617582 0.605904 0.6368
143 2 0.690136 0.561863 0.608775
142 2 0.696368 0.578004 0.612382
46 3 0.509033 0.617828 0.63735
66 2 0.532734 0.62594 0.637688
65 2 0.529773 0.628548 0.621025
50 1 0.534591 0.621372 0.628144
67 2 0.595229 0.627605 0.626658
81 3 0.602163 0.634777 0.627857
144 2 0.540591 0.646417 0.633478
118 1 0.547822 0.643797 0.612114
116 1 0.548686 0.647586 0.62661
83 3 0.578262 0.622669 0.62228
68 2 0.555185 0.656168 0.628821
47 1 0.549425 0.62027 0.625324
41 3 0.557497 0.62574 0.648613
53 1 0.56731 0.62158 0.658446
114 1 0.570856 0.633214 0.62088
43 3 0.575318 0.646731 0.620511
112 1 0.604311 0.639957 0.641481
51 1 0.555513 0.633892 0.621932
56 1 0.568841 0.631117 0.670105
59 1 0.579653 0.631237 0.67748
71 2 0.561 0.63911 0.671636
140 2 0.594285 0.640108 0.646405
79 3 0.607716 0.619329 0.656059
75 2 0.581346 0.638615 0.685331
141 2 0.607671 0.650611 0.639763
137 2 0.622532 0.628833 0.644073
110 1 0.613826 0.631525 0.650309
134 2 0.61951 0.614357 0.63059
136 2 0.616517 0.637082 0.65907
202 2 0.59622 0.58031 0.693161
