ITEM: TIMESTEP
620000
ITEM: NUMBER OF ATOMS
220
ITEM: BOX BOUNDS ff ff ff
-5.0000000000000000e+01 5.0000000000000000e+01
-5.0000000000000000e+01 5.0000000000000000e+01
-5.0000000000000000e+01 5.0000000000000000e+01
ITEM: ATOMS id type xs ys zs
7 3 0.520275 0.585374 0.53846
39 2 0.534603 0.596373 0.520812
21 1 0.536761 0.604808 0.527434
38 2 0.542473 0.612621 0.522543
34 2 0.500374 0.515103 0.564333
35 2 0.518682 0.517062 0.564787
19 1 0.508821 0.521194 0.566904
16 1 0.507327 0.533301 0.57244
31 2 0.497332 0.53629 0.574667
5 3 0.531392 0.536256 0.573784
216 2 0.563889 0.519829 0.588792
220 2 0.57213 0.532635 0.571882
188 1 0.565081 0.529914 0.590816
153 3 0.555061 0.525589 0.611953
186 1 0.559917 0.536455 0.603804
18 1 0.535108 0.604889 0.540777
25 2 0.511655 0.57733 0.596062
10 1 0.514193 0.583474 0.587075
24 2 0.505396 0.584076 0.580769
2 3 0.516907 0.597811 0.592141
6 3 0.498465 0.595263 0.607641
14 1 0.507943 0.602322 0.602416
8 1 0.526114 0.576903 0.579543
26 2 0.513797 0.576825 0.561107
11 1 0.524111 0.577207 0.563895
1 3 0.515828 0.55427 0.581059
9 1 0.52803 0.562257 0.584304
13 1 0.519632 0.541376 0.57623
17 1 0.510087 0.616831 0.605907
3 3 0.530555 0.589875 0.559982
30 2 0.536908 0.594182 0.601171
15 1 0.527017 0.59294 0.546293
27 2 0.528642 0.568737 0.559485
22 2 0.530715 0.561789 0.595028
33 2 0.541081 0.612154 0.54647
23 2 0.536445 0.558378 0.579099
218 2 0.545064 0.561846 0.54437
219 2 0.570043 0.548578 0.58084
190 1 0.569944 0.537612 0.580965
217 2 0.555256 0.559387 0.559808
12 1 0.540494 0.58249 0.583461
4 3 0.541861 0.586512 0.597173
28 2 0.543159 0.591182 0.577503
189 1 0.551003 0.566142 0.552264
187 1 0.555457 0.578882 0.552642
29 2 0.548014 0.575109 0.58097
183 1 0.579098 0.596686 0.575714
207 2 0.570156 0.581672 0.590527
212 2 0.587005 0.59011 0.572577
181 1 0.574816 0.591714 0.590048
150 3 0.585268 0.593808 0.60026
152 3 0.568167 0.596267 0.565947
185 1 0.565293 0.582152 0.563576
154 3 0.571256 0.572971 0.57033
215 2 0.551773 0.586669 0.545303
205 2 0.561042 0.578894 0.609287
211 2 0.583517 0.606822 0.575172
208 2 0.56705 0.598062 0.593824
128 2 0.602162 0.56847 0.590182
61 2 0.552034 0.609405 0.604609
100 1 0.601677 0.567621 0.601606
130 2 0.582599 0.556714 0.602473
155 3 0.559969 0.549011 0.606242
179 1 0.579342 0.590883 0.613113
92 1 0.61172 0.573876 0.60981
102 1 0.591067 0.560389 0.608031
120 2 0.618845 0.580903 0.605588
133 2 0.659581 0.553733 0.60796
105 1 0.655922 0.560836 0.614811
125 2 0.6344 0.557006 0.612892
32 2 0.518092 0.621856 0.601112
70 2 0.52297 0.636235 0.588345
73 2 0.517776 0.630802 0.56482
55 1 0.528891 0.629629 0.582039
58 1 0.526735 0.627254 0.568884
74 2 0.533179 0.62167 0.5623
40 3 0.543147 0.627338 0.601713
44 3 0.550467 0.617639 0.580589
48 1 0.55422 0.619288 0.608646
52 1 0.542128 0.624369 0.587949
62 2 0.563954 0.622841 0.604834
214 2 0.537906 0.532386 0.622148
151 3 0.547568 0.52927 0.649301
210 2 0.546477 0.512654 0.636226
184 1 0.548617 0.531656 0.623897
182 1 0.550784 0.522772 0.636473
209 2 0.561901 0.520465 0.636757
131 2 0.607948 0.535712 0.669343
206 2 0.5736 0.536874 0.640689
148 2 0.64581 0.532715 0.627912
84 3 0.671162 0.535594 0.627991
149 2 0.635391 0.53366 0.642424
119 1 0.64511 0.534844 0.638718
72 2 0.532462 0.573707 0.62253
77 2 0.520374 0.559288 0.638998
60 1 0.521225 0.570098 0.639464
54 1 0.527209 0.592919 0.633089
78 2 0.516472 0.574963 0.647727
46 3 0.519407 0.598817 0.64129
57 1 0.527291 0.577766 0.63054
42 3 0.537107 0.598718 0.624669
199 2 0.528249 0.60461 0.660628
204 2 0.540611 0.547161 0.666492
201 2 0.536173 0.613486 0.68187
122 2 0.584378 0.5509 0.626689
123 2 0.595198 0.538993 0.649331
213 2 0.552563 0.54164 0.62535
50 1 0.539307 0.613922 0.627704
176 1 0.548911 0.55043 0.660861
180 1 0.554989 0.541732 0.651054
191 2 0.542669 0.58861 0.647392
177 1 0.567602 0.583777 0.616327
171 1 0.538079 0.601986 0.664094
178 1 0.567904 0.543976 0.646124
63 2 0.563884 0.602298 0.628883
196 2 0.548572 0.570332 0.667729
94 1 0.592316 0.555824 0.621474
163 1 0.546636 0.593298 0.656421
197 2 0.555473 0.575947 0.632284
203 2 0.597282 0.599372 0.62076
175 1 0.587896 0.595001 0.623454
169 1 0.564869 0.581174 0.629991
198 2 0.582095 0.559299 0.64381
157 1 0.559614 0.590677 0.660639
170 1 0.572766 0.557142 0.647882
159 1 0.564724 0.596833 0.673024
168 1 0.553454 0.563714 0.661453
161 1 0.573745 0.585509 0.640139
156 1 0.570461 0.581635 0.655114
158 1 0.582394 0.583635 0.665289
160 1 0.578561 0.592665 0.675279
162 1 0.565304 0.566861 0.654524
164 1 0.594389 0.57635 0.665891
167 1 0.585533 0.592285 0.636864
172 1 0.603234 0.579291 0.67648
192 2 0.596773 0.568013 0.65893
195 2 0.592707 0.594394 0.644559
88 1 0.604079 0.558903 0.628217
200 2 0.612766 0.574386 0.678132
174 1 0.600333 0.589713 0.685857
165 1 0.5556 0.603222 0.681857
86 1 0.612746 0.569253 0.622888
95 1 0.604423 0.544174 0.650408
89 1 0.609084 0.553892 0.641066
173 1 0.542965 0.60745 0.676222
132 2 0.612796 0.602076 0.669222
103 1 0.612031 0.542513 0.66202
49 1 0.563871 0.613206 0.630037
166 1 0.587791 0.595919 0.686257
193 2 0.558585 0.605816 0.691953
80 3 0.678736 0.56552 0.617766
109 1 0.665335 0.569035 0.621821
97 1 0.642413 0.562674 0.61844
143 2 0.690808 0.545209 0.631691
115 1 0.66851 0.541938 0.638951
124 2 0.620729 0.580146 0.660251
111 1 0.688989 0.566454 0.628697
113 1 0.688792 0.554112 0.637849
104 1 0.6154 0.600577 0.658768
139 2 0.686152 0.575161 0.634092
107 1 0.661986 0.578321 0.631815
135 2 0.669126 0.584448 0.635834
108 1 0.615998 0.612138 0.650501
96 1 0.618931 0.587903 0.653884
90 1 0.621377 0.587096 0.63986
126 2 0.62347 0.598723 0.620638
82 3 0.676152 0.551512 0.645994
117 1 0.654778 0.540197 0.646082
145 2 0.653252 0.543223 0.655942
106 1 0.62025 0.611291 0.637037
98 1 0.622142 0.598561 0.631285
87 1 0.621322 0.561375 0.64364
101 1 0.624665 0.548484 0.664166
129 2 0.630743 0.546178 0.672702
85 1 0.623434 0.572619 0.633623
93 1 0.629167 0.55871 0.655215
91 1 0.638343 0.571639 0.629019
99 1 0.648148 0.578867 0.636015
121 2 0.63875 0.563795 0.656686
127 2 0.645595 0.585573 0.644056
138 2 0.698914 0.567952 0.625051
142 2 0.696205 0.554328 0.645518
37 2 0.496415 0.616599 0.622187
20 1 0.503071 0.622309 0.615837
66 2 0.538545 0.613809 0.638464
65 2 0.530558 0.619236 0.623757
36 2 0.504554 0.632455 0.6181
147 2 0.529621 0.63655 0.620668
146 2 0.538397 0.652838 0.620332
144 2 0.538074 0.632755 0.644064
118 1 0.538035 0.642751 0.624538
116 1 0.542827 0.640651 0.638551
68 2 0.547031 0.648998 0.644249
69 2 0.573569 0.657872 0.626842
83 3 0.576078 0.637165 0.619044
45 3 0.586308 0.621183 0.645705
64 2 0.573399 0.616612 0.626118
41 3 0.562393 0.615737 0.644716
43 3 0.564407 0.655521 0.629499
114 1 0.565515 0.642203 0.624265
47 1 0.552017 0.620041 0.623335
51 1 0.551723 0.635007 0.626538
71 2 0.563435 0.625133 0.669819
76 2 0.593538 0.627812 0.668892
53 1 0.574626 0.620288 0.650921
67 2 0.595155 0.639056 0.634918
81 3 0.603451 0.643892 0.635867
56 1 0.573173 0.625433 0.665423
59 1 0.583858 0.627782 0.673189
140 2 0.601652 0.64772 0.656686
75 2 0.583117 0.63123 0.68282
112 1 0.609418 0.646991 0.648742
79 3 0.613557 0.62392 0.658343
141 2 0.614353 0.656486 0.64791
134 2 0.621203 0.620071 0.631356
110 1 0.619651 0.635462 0.652126
136 2 0.627077 0.640235 0.658662
137 2 0.625367 0.631644 0.644059
202 2 0.607947 0.590595 0.694173
194 2 0.58515 0.603697 0.69323
