ITEM: TIMESTEP
630000
ITEM: NUMBER OF ATOMS
220
ITEM: BOX BOUNDS ff ff ff
-5.0000000000000000e+01 5.0000000000000000e+01
-5.0000000000000000e+01 5.0000000000000000e+01
-5.0000000000000000e+01 5.0000000000000000e+01
ITEM: ATOMS id type xs ys zs
39 2 0.510759 0.585765 0.520668
21 1 0.517315 0.593771 0.522629
38 2 0.517708 0.601829 0.515584
18 1 0.525741 0.593758 0.533215
7 3 0.516093 0.573682 0.543483
33 2 0.533698 0.601329 0.534898
214 2 0.533582 0.518737 0.614145
31 2 0.516193 0.536181 0.569118
16 1 0.515819 0.534974 0.580006
34 2 0.509877 0.515459 0.578594
35 2 0.512127 0.520349 0.59638
19 1 0.51276 0.523349 0.585454
216 2 0.578125 0.510371 0.598106
153 3 0.554029 0.516184 0.610666
188 1 0.572906 0.519023 0.594238
186 1 0.559326 0.523579 0.599673
220 2 0.587726 0.524487 0.580034
190 1 0.577874 0.525931 0.58396
184 1 0.542615 0.523775 0.61662
219 2 0.571651 0.53314 0.579177
25 2 0.511622 0.58215 0.586734
10 1 0.519315 0.589374 0.583781
24 2 0.514754 0.593551 0.574093
2 3 0.521058 0.600053 0.593674
8 1 0.532111 0.58097 0.580697
26 2 0.521773 0.571156 0.563942
11 1 0.531445 0.57578 0.565859
1 3 0.525734 0.557084 0.582395
9 1 0.530863 0.568366 0.590236
13 1 0.519411 0.546261 0.589965
3 3 0.534457 0.585199 0.554878
15 1 0.524803 0.583401 0.544238
5 3 0.518054 0.545557 0.602751
6 3 0.499986 0.590669 0.602019
14 1 0.50951 0.599432 0.602428
17 1 0.508543 0.611899 0.611169
27 2 0.538902 0.568129 0.566143
22 2 0.523892 0.57098 0.598498
218 2 0.561907 0.571952 0.541136
23 2 0.540734 0.566214 0.594629
12 1 0.545237 0.589538 0.581831
30 2 0.5406 0.598181 0.600138
217 2 0.574412 0.565616 0.553364
4 3 0.548101 0.593105 0.595554
28 2 0.543134 0.598789 0.575929
189 1 0.568918 0.574449 0.549255
187 1 0.57076 0.587175 0.552734
29 2 0.553927 0.584927 0.576446
183 1 0.592146 0.605838 0.579459
207 2 0.576578 0.59885 0.591352
212 2 0.598823 0.597386 0.578944
181 1 0.583854 0.606984 0.59201
150 3 0.59178 0.605382 0.605203
152 3 0.58333 0.602688 0.567059
185 1 0.57899 0.589356 0.565288
154 3 0.581563 0.57914 0.573269
215 2 0.565706 0.595302 0.547584
205 2 0.56424 0.599658 0.608401
211 2 0.59759 0.615293 0.578583
208 2 0.578035 0.615578 0.59209
128 2 0.587943 0.571744 0.595659
155 3 0.553666 0.533699 0.593837
120 2 0.608439 0.580348 0.606939
130 2 0.577165 0.551401 0.603398
100 1 0.592043 0.567041 0.604538
92 1 0.602888 0.572725 0.611468
102 1 0.585573 0.554785 0.609221
61 2 0.558963 0.61742 0.609824
72 2 0.545444 0.578724 0.619772
213 2 0.542921 0.534056 0.612823
133 2 0.646376 0.541767 0.60235
105 1 0.645646 0.55018 0.608849
80 3 0.669784 0.550428 0.60642
125 2 0.62465 0.54891 0.613447
109 1 0.657998 0.556481 0.611712
111 1 0.68192 0.553932 0.614717
139 2 0.682338 0.565377 0.613788
138 2 0.690359 0.549185 0.609562
32 2 0.517133 0.618515 0.612283
70 2 0.527227 0.624813 0.5781
73 2 0.534749 0.620403 0.554966
58 1 0.541652 0.621619 0.563125
55 1 0.537497 0.62334 0.575598
147 2 0.524017 0.641776 0.619479
48 1 0.553528 0.626827 0.610878
74 2 0.55255 0.62032 0.560388
40 3 0.542809 0.625731 0.600703
62 2 0.560242 0.634266 0.608184
44 3 0.559901 0.624166 0.583718
52 1 0.547556 0.62442 0.587295
151 3 0.537084 0.533506 0.639678
210 2 0.542361 0.513297 0.6357
182 1 0.544477 0.523742 0.631875
209 2 0.554919 0.52545 0.634571
123 2 0.596145 0.53262 0.648155
131 2 0.611547 0.529539 0.667192
95 1 0.604727 0.539045 0.649547
103 1 0.613252 0.537793 0.660632
129 2 0.631098 0.54479 0.671156
37 2 0.489246 0.607468 0.617046
77 2 0.530072 0.560462 0.628358
60 1 0.528807 0.570623 0.631356
54 1 0.532368 0.594786 0.628847
78 2 0.520179 0.572502 0.637565
46 3 0.522895 0.596538 0.637401
57 1 0.53642 0.580397 0.62585
199 2 0.53158 0.609617 0.668928
204 2 0.531325 0.551107 0.658103
20 1 0.497397 0.614224 0.617707
177 1 0.570487 0.597713 0.616521
179 1 0.584587 0.599475 0.615878
206 2 0.562275 0.541267 0.629192
122 2 0.584668 0.539512 0.623992
171 1 0.542081 0.606569 0.669577
173 1 0.549283 0.608336 0.681672
180 1 0.545426 0.544687 0.6432
42 3 0.540478 0.604797 0.622229
178 1 0.55729 0.548 0.635846
176 1 0.540269 0.553318 0.652991
191 2 0.542678 0.599685 0.648852
63 2 0.561075 0.613894 0.634522
196 2 0.543355 0.571733 0.664605
94 1 0.589022 0.548584 0.621185
163 1 0.547407 0.599402 0.658762
197 2 0.55429 0.591393 0.628263
203 2 0.602508 0.599597 0.628098
175 1 0.592336 0.596784 0.627403
169 1 0.564841 0.591126 0.627821
198 2 0.571932 0.563484 0.633219
157 1 0.558974 0.591699 0.661048
170 1 0.563159 0.560554 0.638046
159 1 0.566279 0.59352 0.67298
168 1 0.546688 0.565971 0.656536
161 1 0.572701 0.586895 0.638717
156 1 0.56612 0.581117 0.651624
158 1 0.577865 0.577342 0.660759
160 1 0.577996 0.584089 0.673493
162 1 0.557931 0.568704 0.648332
164 1 0.587398 0.567136 0.659367
167 1 0.586767 0.589647 0.638084
172 1 0.597118 0.565134 0.669771
192 2 0.587963 0.560337 0.651288
195 2 0.593159 0.587682 0.646719
88 1 0.599857 0.554618 0.628336
200 2 0.605376 0.558307 0.667304
174 1 0.597234 0.573077 0.681473
165 1 0.561525 0.601582 0.683608
166 1 0.587356 0.582822 0.683901
86 1 0.607139 0.565712 0.623057
124 2 0.615685 0.57606 0.65785
89 1 0.607577 0.549563 0.639849
50 1 0.537794 0.618708 0.627187
97 1 0.633763 0.554593 0.614377
84 3 0.688099 0.542948 0.65645
148 2 0.687268 0.548914 0.679344
119 1 0.680701 0.557105 0.67742
149 2 0.677486 0.56228 0.685629
132 2 0.615089 0.59836 0.6673
104 1 0.616515 0.597057 0.656616
108 1 0.6172 0.608273 0.64798
96 1 0.616677 0.58416 0.650846
143 2 0.679583 0.538081 0.628394
113 1 0.68275 0.548741 0.629436
106 1 0.619198 0.607612 0.633714
115 1 0.680015 0.552305 0.652808
107 1 0.656768 0.56819 0.619206
135 2 0.665599 0.574534 0.618407
90 1 0.619029 0.583457 0.63726
126 2 0.62149 0.592995 0.618126
82 3 0.675231 0.55597 0.639921
117 1 0.676396 0.561194 0.665046
145 2 0.670134 0.569314 0.663789
98 1 0.620168 0.594924 0.628299
87 1 0.618461 0.558259 0.642476
101 1 0.625164 0.545453 0.662445
85 1 0.620078 0.568639 0.631141
93 1 0.627498 0.555698 0.652853
91 1 0.633284 0.565506 0.623287
99 1 0.644711 0.573765 0.624857
121 2 0.636235 0.562581 0.653566
127 2 0.645021 0.583267 0.630091
142 2 0.693615 0.548757 0.633006
146 2 0.530615 0.658322 0.622233
36 2 0.495952 0.622349 0.623883
65 2 0.527717 0.621248 0.62388
144 2 0.530619 0.635487 0.644728
118 1 0.530748 0.647968 0.625601
116 1 0.533648 0.645059 0.639883
68 2 0.533271 0.653896 0.646429
201 2 0.544257 0.612625 0.690856
66 2 0.53735 0.617202 0.638105
71 2 0.565571 0.632418 0.673211
69 2 0.555902 0.674486 0.632336
45 3 0.583494 0.617256 0.649331
49 1 0.56115 0.624721 0.633451
64 2 0.570267 0.626365 0.62788
83 3 0.56767 0.650602 0.623806
41 3 0.562088 0.629369 0.647552
43 3 0.55028 0.666629 0.631056
114 1 0.556114 0.654259 0.627478
47 1 0.549081 0.628473 0.625363
51 1 0.545003 0.642683 0.629107
76 2 0.590918 0.616636 0.674296
53 1 0.573691 0.624339 0.654236
67 2 0.586469 0.647721 0.641912
81 3 0.593452 0.651307 0.647497
56 1 0.573374 0.626317 0.669156
59 1 0.582594 0.621488 0.677196
140 2 0.596198 0.639942 0.66386
112 1 0.602961 0.643439 0.655469
110 1 0.609232 0.632014 0.646843
137 2 0.602092 0.626471 0.640858
141 2 0.61055 0.649889 0.659534
75 2 0.581565 0.623086 0.6871
79 3 0.615081 0.621052 0.654531
136 2 0.616742 0.635856 0.639252
134 2 0.620411 0.616517 0.628087
193 2 0.566176 0.601171 0.693029
202 2 0.605035 0.570234 0.68856
194 2 0.587904 0.589465 0.69297
