ITEM: TIMESTEP
1450000
ITEM: NUMBER OF ATOMS
174
ITEM: BOX BOUNDS ff ff ff
-5.0000000000000000e+01 5.0000000000000000e+01
-5.0000000000000000e+01 5.0000000000000000e+01
-5.0000000000000000e+01 5.0000000000000000e+01
ITEM: ATOMS id type xs ys zs
148 2 0.89889 0.913824 0.352966
149 2 0.909107 0.900711 0.345977
119 1 0.907051 0.907504 0.353604
42 3 0.666055 0.334488 0.44728
144 2 0.653095 0.333954 0.428378
51 1 0.633844 0.331746 0.44242
116 1 0.643785 0.328769 0.430138
83 3 0.62011 0.31708 0.430262
68 2 0.641809 0.319759 0.425472
114 1 0.620955 0.323073 0.441964
47 1 0.640791 0.337306 0.453822
54 1 0.675934 0.341649 0.439849
146 2 0.624499 0.340554 0.423219
118 1 0.633723 0.340196 0.428822
43 3 0.611525 0.324138 0.452601
69 2 0.613531 0.325953 0.461447
65 2 0.656356 0.349946 0.459749
50 1 0.654321 0.343553 0.451449
66 2 0.655974 0.349738 0.4426
48 1 0.633378 0.349302 0.45855
62 2 0.623033 0.348223 0.458486
61 2 0.635344 0.349554 0.469892
147 2 0.638575 0.349382 0.430645
44 3 0.630073 0.374535 0.471109
46 3 0.67636 0.353818 0.434363
57 1 0.690724 0.336799 0.438979
77 2 0.709792 0.344766 0.437298
72 2 0.694155 0.325918 0.441211
60 1 0.699838 0.346154 0.438591
78 2 0.697197 0.356174 0.437501
199 2 0.906294 0.810329 0.442169
201 2 0.899626 0.818269 0.419613
173 1 0.901875 0.82542 0.427402
171 1 0.907938 0.820088 0.439196
193 2 0.898283 0.843169 0.415348
165 1 0.90156 0.83907 0.424824
159 1 0.90687 0.847732 0.434771
163 1 0.915343 0.828521 0.448289
157 1 0.912867 0.842022 0.446126
156 1 0.915255 0.85411 0.455517
191 2 0.919933 0.824808 0.457212
167 1 0.936941 0.844226 0.460726
203 2 0.954964 0.83582 0.467765
162 1 0.900256 0.85592 0.462333
160 1 0.911483 0.862197 0.433383
158 1 0.918428 0.865731 0.444729
194 2 0.906479 0.866955 0.412267
166 1 0.912433 0.869619 0.420836
198 2 0.892737 0.870904 0.447755
84 3 0.903766 0.92647 0.375054
174 1 0.917726 0.881736 0.421055
172 1 0.923657 0.885993 0.434116
164 1 0.925058 0.878268 0.44591
117 1 0.910978 0.904617 0.366025
115 1 0.907635 0.914236 0.376823
192 2 0.930387 0.88172 0.45384
138 2 0.920194 0.90736 0.414676
133 2 0.906515 0.897974 0.434082
105 1 0.904773 0.905479 0.441709
139 2 0.902151 0.904868 0.415267
111 1 0.910656 0.91252 0.414636
145 2 0.91844 0.896089 0.367752
82 3 0.912332 0.908844 0.389576
170 1 0.891423 0.866456 0.457629
206 2 0.879019 0.88271 0.462839
178 1 0.882429 0.872038 0.465937
125 2 0.903985 0.89046 0.456793
97 1 0.90314 0.902062 0.455026
109 1 0.906537 0.918675 0.437842
195 2 0.935007 0.839018 0.452466
202 2 0.920037 0.887711 0.411662
200 2 0.92808 0.895318 0.434987
126 2 0.923834 0.910736 0.45555
134 2 0.946122 0.898622 0.450342
143 2 0.898144 0.922387 0.399719
113 1 0.908193 0.918479 0.400394
142 2 0.914495 0.927073 0.399369
80 3 0.909721 0.923544 0.424708
107 1 0.904118 0.928473 0.448052
135 2 0.906436 0.938836 0.44664
71 2 0.633493 0.305854 0.505001
64 2 0.644333 0.332567 0.474758
63 2 0.648838 0.320495 0.461813
49 1 0.641244 0.326969 0.465672
45 3 0.650352 0.315295 0.486913
41 3 0.63015 0.320868 0.473726
53 1 0.637598 0.315831 0.484562
56 1 0.629537 0.309762 0.495823
59 1 0.616444 0.31206 0.49622
75 2 0.612009 0.309736 0.505723
76 2 0.611771 0.317269 0.488456
52 1 0.631931 0.373624 0.458546
40 3 0.637067 0.362636 0.451583
70 2 0.628825 0.386233 0.439641
55 1 0.626596 0.38571 0.449753
73 2 0.609822 0.400783 0.44769
58 1 0.616369 0.393586 0.453421
74 2 0.61238 0.393376 0.463242
209 2 0.850075 0.87587 0.493823
210 2 0.852664 0.861001 0.484869
182 1 0.856949 0.866703 0.493244
184 1 0.854643 0.857783 0.505113
161 1 0.925287 0.851696 0.466202
176 1 0.885058 0.853136 0.479889
204 2 0.882482 0.849677 0.490443
196 2 0.901592 0.839147 0.475974
197 2 0.91415 0.862247 0.481542
169 1 0.923472 0.857025 0.479175
168 1 0.897061 0.848991 0.473869
153 3 0.841433 0.85023 0.506856
186 1 0.841001 0.842425 0.518803
188 1 0.828351 0.833766 0.521564
216 2 0.820517 0.836664 0.515476
177 1 0.933991 0.855367 0.488423
205 2 0.933346 0.856782 0.498531
175 1 0.947154 0.84191 0.469441
179 1 0.946073 0.84912 0.483358
150 3 0.955722 0.844308 0.491338
213 2 0.853424 0.86219 0.514908
155 3 0.850634 0.84274 0.527223
214 2 0.863023 0.850669 0.507811
151 3 0.868293 0.872622 0.484667
180 1 0.87786 0.864754 0.477775
129 2 0.889192 0.869788 0.497385
101 1 0.893322 0.879525 0.499527
103 1 0.90008 0.881141 0.512019
131 2 0.899418 0.873347 0.519147
121 2 0.891946 0.884079 0.477494
93 1 0.894544 0.888406 0.487873
87 1 0.903421 0.898493 0.49007
89 1 0.907308 0.902212 0.503579
85 1 0.909853 0.908592 0.479914
86 1 0.913438 0.919404 0.489781
88 1 0.913562 0.915615 0.503776
91 1 0.904235 0.911196 0.465353
99 1 0.900904 0.924744 0.460841
95 1 0.90467 0.894018 0.51523
123 2 0.907267 0.896548 0.525644
124 2 0.925079 0.893576 0.495883
122 2 0.915743 0.923523 0.523857
106 1 0.942439 0.90016 0.460808
137 2 0.977406 0.875122 0.472239
108 1 0.949397 0.892721 0.470464
110 1 0.968931 0.87925 0.477094
136 2 0.962965 0.870842 0.475282
79 3 0.963081 0.890079 0.468285
67 2 0.964788 0.866558 0.505914
81 3 0.972067 0.870917 0.502159
98 1 0.929453 0.90521 0.463192
96 1 0.930277 0.893952 0.485299
90 1 0.923073 0.901407 0.474686
112 1 0.970418 0.881441 0.492629
141 2 0.961452 0.887106 0.495158
140 2 0.978697 0.888425 0.495754
104 1 0.94283 0.888006 0.48178
120 2 0.918033 0.935562 0.475023
132 2 0.948556 0.881888 0.488582
127 2 0.900069 0.932365 0.468905
94 1 0.917048 0.925034 0.513185
92 1 0.918257 0.931874 0.485969
100 1 0.924139 0.940275 0.49574
102 1 0.923645 0.936978 0.509639
128 2 0.926922 0.950921 0.493552
130 2 0.927167 0.943763 0.516946
219 2 0.832473 0.821945 0.539257
190 1 0.826096 0.824028 0.530762
208 2 0.899394 0.77435 0.670889
220 2 0.816231 0.818584 0.530222
211 2 0.920746 0.78972 0.676274
183 1 0.91643 0.785788 0.666546
212 2 0.922936 0.78777 0.658622
181 1 0.905173 0.779354 0.663566
207 2 0.904017 0.776996 0.653023
185 1 0.936082 0.829935 0.694475
