ITEM: TIMESTEP
390000
ITEM: NUMBER OF ATOMS
220
ITEM: BOX BOUNDS ff ff ff
-5.0000000000000000e+01 5.0000000000000000e+01
-5.0000000000000000e+01 5.0000000000000000e+01
-5.0000000000000000e+01 5.0000000000000000e+01
ITEM: ATOMS id type xs ys zs
18 1 0.519829 0.583702 0.522492
33 2 0.515538 0.573774 0.521963
21 1 0.522767 0.589499 0.511107
38 2 0.521193 0.584452 0.501413
39 2 0.526865 0.599518 0.510395
7 3 0.52746 0.602667 0.534341
35 2 0.561781 0.528834 0.57847
34 2 0.578342 0.535329 0.575146
19 1 0.567816 0.537613 0.57587
5 3 0.539513 0.541992 0.574232
219 2 0.535904 0.54483 0.59884
15 1 0.52309 0.590537 0.535626
25 2 0.506877 0.572701 0.583329
10 1 0.50942 0.581379 0.576683
24 2 0.502376 0.580733 0.568503
6 3 0.504636 0.578746 0.603233
2 3 0.507365 0.593987 0.584471
14 1 0.503359 0.590405 0.59766
17 1 0.499806 0.602598 0.60624
3 3 0.521855 0.581986 0.547177
22 2 0.523942 0.561413 0.561994
23 2 0.525611 0.560648 0.579098
27 2 0.522783 0.598596 0.559934
8 1 0.524591 0.580912 0.572517
11 1 0.52706 0.588923 0.559279
9 1 0.52902 0.56603 0.570814
32 2 0.499724 0.612648 0.602447
30 2 0.526756 0.58148 0.601828
28 2 0.533334 0.597324 0.585899
40 3 0.536762 0.614756 0.599031
26 2 0.537728 0.589929 0.557732
4 3 0.533464 0.579034 0.595885
1 3 0.543892 0.565252 0.568978
12 1 0.534751 0.586513 0.583572
190 1 0.544771 0.547841 0.6032
130 2 0.577597 0.538844 0.621207
220 2 0.550201 0.555406 0.597715
29 2 0.544684 0.58523 0.57982
13 1 0.547435 0.551694 0.571089
183 1 0.570561 0.589091 0.576944
207 2 0.573141 0.573357 0.592249
211 2 0.580858 0.589337 0.573253
212 2 0.566283 0.581891 0.57037
208 2 0.559811 0.583172 0.595188
181 1 0.570011 0.583745 0.591498
150 3 0.579307 0.590795 0.600918
61 2 0.553913 0.603848 0.605574
152 3 0.564689 0.602591 0.575303
154 3 0.560946 0.5956 0.552495
185 1 0.560038 0.604277 0.561784
16 1 0.562475 0.549516 0.571975
31 2 0.569169 0.556988 0.568175
128 2 0.583962 0.556894 0.60577
120 2 0.603692 0.571318 0.611122
100 1 0.589596 0.555507 0.614672
92 1 0.600051 0.564164 0.618478
205 2 0.559499 0.574714 0.612268
48 1 0.549832 0.614464 0.606536
217 2 0.553127 0.617142 0.539332
133 2 0.648355 0.540378 0.610533
134 2 0.615517 0.612404 0.618364
126 2 0.619769 0.588907 0.614977
80 3 0.669159 0.5542 0.609531
138 2 0.688518 0.559657 0.60309
111 1 0.680968 0.563294 0.610369
139 2 0.677604 0.573145 0.607367
105 1 0.646685 0.550583 0.615072
109 1 0.656912 0.560284 0.614574
70 2 0.517152 0.616051 0.582983
73 2 0.51419 0.631116 0.564132
55 1 0.524179 0.623757 0.580993
58 1 0.52217 0.631983 0.570907
74 2 0.529351 0.639621 0.567972
52 1 0.536189 0.625944 0.590196
218 2 0.547209 0.633004 0.546762
187 1 0.554603 0.618753 0.560217
189 1 0.551554 0.623173 0.548178
215 2 0.552075 0.62466 0.568869
62 2 0.557048 0.62114 0.601919
44 3 0.544495 0.635725 0.587993
141 2 0.597812 0.649413 0.624082
83 3 0.567703 0.638119 0.616515
136 2 0.612322 0.630056 0.623045
155 3 0.530673 0.52738 0.618474
213 2 0.529835 0.524409 0.646207
214 2 0.539965 0.512627 0.638341
210 2 0.545654 0.509918 0.662228
184 1 0.540381 0.521491 0.644552
151 3 0.547261 0.529355 0.667629
186 1 0.541073 0.533373 0.623299
182 1 0.548424 0.518973 0.657453
153 3 0.546035 0.533089 0.636701
209 2 0.559205 0.5182 0.655226
206 2 0.568557 0.534194 0.649808
123 2 0.606958 0.534965 0.663568
149 2 0.720283 0.528612 0.66005
65 2 0.525527 0.613457 0.620367
20 1 0.496783 0.6001 0.619014
37 2 0.495876 0.589956 0.622704
57 1 0.534597 0.573178 0.628974
60 1 0.531565 0.564766 0.639143
54 1 0.530536 0.58773 0.631324
78 2 0.526972 0.568591 0.648303
46 3 0.524092 0.592145 0.641742
77 2 0.533795 0.554375 0.63855
199 2 0.531969 0.604311 0.664431
204 2 0.541831 0.551788 0.678911
66 2 0.533317 0.611884 0.635924
50 1 0.534677 0.610607 0.625249
42 3 0.536372 0.5959 0.621245
102 1 0.585732 0.545177 0.623816
171 1 0.543065 0.603405 0.666584
179 1 0.576907 0.587561 0.614507
122 2 0.589265 0.535174 0.642865
131 2 0.625901 0.539374 0.680194
72 2 0.538992 0.569733 0.619843
180 1 0.554708 0.541414 0.664893
191 2 0.544844 0.587071 0.652282
188 1 0.548455 0.54423 0.61525
176 1 0.550293 0.553066 0.671998
196 2 0.553116 0.574756 0.675559
216 2 0.557804 0.547414 0.619757
178 1 0.564684 0.542691 0.654982
63 2 0.55823 0.603796 0.631452
163 1 0.549846 0.593279 0.65953
197 2 0.557938 0.569885 0.637466
203 2 0.594386 0.598951 0.62001
175 1 0.586351 0.593405 0.623511
177 1 0.56637 0.579118 0.619419
169 1 0.565362 0.576298 0.633094
198 2 0.578552 0.556958 0.64521
157 1 0.563521 0.591657 0.662633
170 1 0.570574 0.55549 0.652236
159 1 0.570301 0.599806 0.672148
168 1 0.556346 0.565628 0.669925
161 1 0.574854 0.582285 0.641925
156 1 0.572688 0.580483 0.657259
158 1 0.585289 0.582431 0.666176
160 1 0.584176 0.594293 0.67393
162 1 0.566651 0.566397 0.660036
164 1 0.595846 0.573347 0.668285
167 1 0.585602 0.590444 0.637283
172 1 0.605491 0.576672 0.677956
192 2 0.596587 0.564204 0.662785
195 2 0.592967 0.594685 0.643935
94 1 0.592473 0.542864 0.636098
88 1 0.604057 0.55049 0.638896
86 1 0.607463 0.561235 0.630035
89 1 0.61351 0.55118 0.650522
165 1 0.563476 0.609362 0.680067
166 1 0.594741 0.598389 0.682611
95 1 0.614242 0.543471 0.662187
174 1 0.605403 0.589315 0.68474
132 2 0.614104 0.607489 0.661511
103 1 0.62487 0.545292 0.67139
49 1 0.557923 0.614478 0.629372
104 1 0.61453 0.60295 0.65163
200 2 0.613396 0.569704 0.679908
194 2 0.594971 0.608082 0.68714
47 1 0.546437 0.61853 0.620521
64 2 0.567641 0.616711 0.624898
202 2 0.613417 0.592014 0.691803
124 2 0.617975 0.58342 0.658146
96 1 0.617351 0.589418 0.649753
90 1 0.6185 0.584027 0.63624
87 1 0.623208 0.561327 0.64801
101 1 0.634391 0.555643 0.668939
108 1 0.614131 0.611192 0.640064
106 1 0.615872 0.606218 0.627125
125 2 0.62601 0.546459 0.619763
135 2 0.663912 0.580114 0.619969
98 1 0.618313 0.592417 0.624946
85 1 0.620237 0.568689 0.63476
91 1 0.633187 0.565997 0.626118
97 1 0.634029 0.553317 0.619754
99 1 0.643401 0.575534 0.626553
107 1 0.655741 0.573083 0.620183
121 2 0.640886 0.571193 0.655844
127 2 0.641763 0.58444 0.631861
93 1 0.633418 0.563885 0.657582
129 2 0.642451 0.55867 0.675956
142 2 0.681408 0.568063 0.631474
113 1 0.688138 0.564141 0.62371
143 2 0.696613 0.571342 0.623381
84 3 0.708338 0.562126 0.643295
145 2 0.702129 0.528972 0.643284
82 3 0.692825 0.550714 0.629106
119 1 0.716446 0.537814 0.655698
117 1 0.706984 0.538008 0.646052
148 2 0.7222 0.546494 0.658993
115 1 0.702078 0.55147 0.639635
36 2 0.493664 0.607961 0.626511
146 2 0.531194 0.64789 0.608553
147 2 0.522926 0.632033 0.610721
118 1 0.530126 0.639266 0.614569
144 2 0.526124 0.634637 0.636201
116 1 0.532318 0.640561 0.629254
68 2 0.5345 0.650624 0.633342
173 1 0.549753 0.611381 0.676442
201 2 0.543737 0.618649 0.681794
193 2 0.568622 0.614757 0.687819
41 3 0.557794 0.622478 0.642233
45 3 0.581224 0.615159 0.644966
69 2 0.559113 0.660738 0.614593
43 3 0.552512 0.656588 0.620414
114 1 0.556166 0.642879 0.619594
51 1 0.543792 0.633584 0.621144
137 2 0.596103 0.624345 0.627888
53 1 0.570792 0.622391 0.647944
76 2 0.592693 0.626369 0.662528
56 1 0.572261 0.631081 0.660212
59 1 0.584217 0.632083 0.666211
71 2 0.563886 0.637107 0.663539
75 2 0.586232 0.637672 0.674887
67 2 0.579828 0.642708 0.638879
110 1 0.604429 0.630717 0.630847
81 3 0.587578 0.646362 0.642438
112 1 0.599338 0.645089 0.633961
140 2 0.60779 0.651264 0.637795
79 3 0.611979 0.625024 0.642658
