ITEM: TIMESTEP
1300000
ITEM: NUMBER OF ATOMS
220
ITEM: BOX BOUNDS ff ff ff
-5.0000000000000000e+01 5.0000000000000000e+01
-5.0000000000000000e+01 5.0000000000000000e+01
-5.0000000000000000e+01 5.0000000000000000e+01
ITEM: ATOMS id type xs ys zs
71 2 0.520474 0.498915 0.548879
35 2 0.565828 0.628696 0.515641
5 3 0.565793 0.609281 0.535581
34 2 0.551769 0.639634 0.513833
19 1 0.55711 0.632146 0.520542
13 1 0.55527 0.616012 0.539713
16 1 0.550465 0.628077 0.53151
31 2 0.541999 0.633596 0.534714
216 2 0.526224 0.531373 0.604752
147 2 0.533733 0.528426 0.54139
188 1 0.518907 0.538556 0.604451
190 1 0.505818 0.535553 0.601941
220 2 0.503451 0.524838 0.600258
75 2 0.516964 0.476997 0.561322
59 1 0.525221 0.482981 0.563734
76 2 0.530029 0.481111 0.573121
56 1 0.52661 0.494894 0.557641
53 1 0.538301 0.502955 0.565228
45 3 0.543573 0.497922 0.575757
64 2 0.544864 0.525096 0.573905
41 3 0.542557 0.512722 0.555873
49 1 0.550372 0.523332 0.564151
63 2 0.558918 0.518191 0.567991
70 2 0.561939 0.539299 0.606632
55 1 0.570919 0.544895 0.604227
60 1 0.610429 0.526171 0.559732
72 2 0.596847 0.511533 0.566345
57 1 0.598871 0.520626 0.560652
77 2 0.618968 0.520728 0.562858
32 2 0.517156 0.588194 0.593726
36 2 0.49976 0.588067 0.609243
20 1 0.503913 0.597765 0.607714
144 2 0.530333 0.532504 0.567492
116 1 0.529731 0.540445 0.561068
68 2 0.523997 0.549294 0.563979
146 2 0.528513 0.545901 0.539205
69 2 0.533924 0.575362 0.546306
43 3 0.53308 0.565687 0.547223
118 1 0.53182 0.538763 0.545912
2 3 0.5358 0.604553 0.592052
153 3 0.537863 0.554373 0.610924
213 2 0.539126 0.573443 0.602975
17 1 0.513943 0.5976 0.599251
14 1 0.522434 0.609688 0.594667
10 1 0.543196 0.614284 0.582835
25 2 0.535616 0.619215 0.576753
219 2 0.497656 0.542332 0.602808
186 1 0.523967 0.552375 0.607356
155 3 0.514153 0.560593 0.6085
46 3 0.593294 0.541291 0.551684
78 2 0.612587 0.537076 0.557263
114 1 0.545368 0.56039 0.551939
83 3 0.557676 0.564633 0.550784
51 1 0.543784 0.544956 0.554655
66 2 0.560091 0.533103 0.53787
65 2 0.570161 0.54439 0.545176
47 1 0.555019 0.535839 0.557864
50 1 0.565224 0.535006 0.547296
40 3 0.562137 0.540724 0.584064
48 1 0.562565 0.543147 0.569112
62 2 0.572516 0.544257 0.566485
61 2 0.558885 0.552941 0.567739
22 2 0.544831 0.598047 0.561315
54 1 0.587692 0.529683 0.554576
42 3 0.575156 0.524225 0.552495
30 2 0.58024 0.593777 0.584518
4 3 0.573022 0.591519 0.578421
28 2 0.551205 0.592749 0.580878
29 2 0.560516 0.598392 0.595032
12 1 0.560803 0.597208 0.584131
157 1 0.609628 0.608138 0.602839
163 1 0.607537 0.594987 0.59751
191 2 0.608037 0.587239 0.604131
23 2 0.561023 0.599544 0.556793
9 1 0.552565 0.60509 0.561347
8 1 0.555347 0.609281 0.575438
1 3 0.548506 0.615546 0.55191
27 2 0.575657 0.616441 0.573921
52 1 0.574122 0.546347 0.589631
44 3 0.58377 0.552783 0.584046
11 1 0.565139 0.619575 0.575939
168 1 0.582148 0.614326 0.617495
162 1 0.593753 0.606906 0.619651
156 1 0.607848 0.612789 0.617375
176 1 0.569261 0.608558 0.617207
204 2 0.56117 0.61501 0.616236
171 1 0.606089 0.593221 0.583815
199 2 0.605694 0.583419 0.578502
173 1 0.602767 0.604099 0.575066
201 2 0.60122 0.600513 0.564919
197 2 0.628135 0.595136 0.613227
37 2 0.500186 0.60636 0.611969
6 3 0.517602 0.621462 0.596122
24 2 0.546813 0.621797 0.58949
160 1 0.607572 0.632672 0.601872
26 2 0.563548 0.627058 0.56827
3 3 0.566664 0.625993 0.591173
7 3 0.571364 0.648196 0.582756
15 1 0.568397 0.639598 0.592178
18 1 0.57019 0.645412 0.606496
39 2 0.576553 0.663475 0.59708
21 1 0.575112 0.657645 0.60658
33 2 0.568483 0.639981 0.615697
38 2 0.5777 0.663337 0.615558
196 2 0.581871 0.624937 0.615828
166 1 0.608444 0.646724 0.597746
165 1 0.606002 0.616514 0.58052
159 1 0.608779 0.619848 0.594249
193 2 0.606006 0.625364 0.573417
194 2 0.607478 0.651857 0.588473
73 2 0.578405 0.55109 0.622641
67 2 0.613543 0.5665 0.667253
81 3 0.611428 0.55792 0.663962
184 1 0.540089 0.569245 0.612584
128 2 0.541491 0.61452 0.637611
214 2 0.531955 0.572946 0.6188
182 1 0.554088 0.573625 0.617634
209 2 0.561269 0.569939 0.611558
206 2 0.577588 0.576266 0.616777
198 2 0.600935 0.587004 0.619128
58 1 0.579633 0.549578 0.612175
74 2 0.58632 0.556073 0.607657
140 2 0.619547 0.539987 0.656813
136 2 0.617686 0.545692 0.633266
100 1 0.551265 0.61602 0.641392
120 2 0.551832 0.595939 0.651005
92 1 0.557283 0.605216 0.649151
151 3 0.555541 0.589012 0.619335
180 1 0.568199 0.595061 0.619617
170 1 0.592199 0.592874 0.619491
178 1 0.579837 0.586532 0.619408
86 1 0.569163 0.607426 0.655772
87 1 0.588114 0.606925 0.669544
121 2 0.597732 0.595401 0.683862
126 2 0.601967 0.596745 0.653331
91 1 0.569325 0.592382 0.677977
85 1 0.576935 0.597912 0.66448
90 1 0.582904 0.586104 0.655585
96 1 0.575007 0.575296 0.651623
124 2 0.564638 0.574955 0.65389
167 1 0.614936 0.607968 0.641586
195 2 0.606201 0.612104 0.64541
98 1 0.59624 0.588444 0.650823
161 1 0.617784 0.60641 0.62796
203 2 0.622428 0.602985 0.66088
104 1 0.580706 0.564389 0.645075
132 2 0.575009 0.555668 0.643217
175 1 0.624422 0.60249 0.650648
108 1 0.594443 0.565874 0.641098
106 1 0.602213 0.57713 0.645247
79 3 0.601266 0.554603 0.634103
110 1 0.615318 0.554129 0.639004
134 2 0.611788 0.579947 0.641904
210 2 0.556233 0.56883 0.6266
99 1 0.56992 0.600391 0.689809
125 2 0.562074 0.57359 0.669705
97 1 0.564689 0.578967 0.678421
93 1 0.597629 0.604958 0.679412
141 2 0.629253 0.554996 0.653027
112 1 0.619131 0.551028 0.653655
137 2 0.619464 0.56364 0.636404
169 1 0.62792 0.597503 0.623526
208 2 0.640618 0.604482 0.66738
181 1 0.6441 0.594405 0.669299
179 1 0.635198 0.59408 0.646543
211 2 0.639228 0.579619 0.684369
152 3 0.620747 0.585685 0.675492
207 2 0.654314 0.595333 0.673625
177 1 0.637344 0.592273 0.632903
150 3 0.644552 0.587965 0.656226
183 1 0.634931 0.58909 0.680149
205 2 0.646371 0.587669 0.630019
212 2 0.636132 0.596149 0.689484
130 2 0.552819 0.637505 0.634503
102 1 0.5577 0.629139 0.64
94 1 0.569874 0.631463 0.646464
88 1 0.575254 0.620954 0.654344
89 1 0.58709 0.619926 0.662537
127 2 0.575595 0.609318 0.689594
122 2 0.574233 0.64236 0.646347
158 1 0.610023 0.628428 0.615522
174 1 0.611771 0.655046 0.608309
123 2 0.594872 0.640077 0.663966
95 1 0.596577 0.630248 0.666529
172 1 0.612731 0.651273 0.622149
103 1 0.607854 0.626363 0.67392
101 1 0.608619 0.613876 0.680138
200 2 0.613548 0.657981 0.630789
131 2 0.615752 0.633321 0.674992
129 2 0.616967 0.611933 0.68663
164 1 0.612096 0.637712 0.625935
192 2 0.612293 0.635073 0.636854
202 2 0.61436 0.665415 0.606422
138 2 0.558658 0.592835 0.728761
109 1 0.559714 0.58195 0.70256
135 2 0.564867 0.600639 0.710459
107 1 0.564928 0.595129 0.701746
139 2 0.541848 0.589485 0.724062
133 2 0.558745 0.563403 0.691115
111 1 0.551236 0.585056 0.726267
80 3 0.555669 0.575599 0.714541
105 1 0.560462 0.573762 0.691013
215 2 0.592555 0.577702 0.673876
187 1 0.598798 0.577062 0.683227
113 1 0.549794 0.576229 0.738451
142 2 0.544639 0.566602 0.735437
82 3 0.562855 0.57252 0.744862
143 2 0.54437 0.581028 0.746034
218 2 0.580835 0.567552 0.688422
189 1 0.591199 0.569081 0.690036
115 1 0.561442 0.566164 0.757652
84 3 0.550693 0.562864 0.763729
217 2 0.595526 0.564752 0.698908
117 1 0.574647 0.568443 0.764665
145 2 0.582715 0.572747 0.758495
149 2 0.585004 0.566074 0.783665
119 1 0.576155 0.565285 0.777331
185 1 0.613149 0.58091 0.686366
154 3 0.617535 0.577669 0.697985
148 2 0.568062 0.561051 0.782261
