ITEM: TIMESTEP
765000
ITEM: NUMBER OF ATOMS
220
ITEM: BOX BOUNDS ff ff ff
-5.0000000000000000e+01 5.0000000000000000e+01
-5.0000000000000000e+01 5.0000000000000000e+01
-5.0000000000000000e+01 5.0000000000000000e+01
ITEM: ATOMS id type xs ys zs
36 2 0.507275 0.521061 0.546103
20 1 0.506252 0.524017 0.556649
37 2 0.500311 0.517418 0.562525
6 3 0.499314 0.529988 0.58228
209 2 0.529902 0.5129 0.615134
210 2 0.531435 0.529764 0.614599
182 1 0.537006 0.520939 0.616042
186 1 0.565101 0.531267 0.594711
153 3 0.550943 0.530836 0.596936
184 1 0.54767 0.518774 0.605357
213 2 0.544936 0.511598 0.598027
155 3 0.574845 0.523107 0.596448
214 2 0.557714 0.514885 0.609315
206 2 0.55656 0.535001 0.616025
17 1 0.510125 0.536073 0.562019
32 2 0.515402 0.542238 0.555171
14 1 0.506579 0.538837 0.576339
60 1 0.550542 0.58445 0.575739
42 3 0.53293 0.612523 0.593823
54 1 0.540647 0.601132 0.591961
77 2 0.551172 0.580498 0.565733
57 1 0.541797 0.59497 0.577953
72 2 0.536634 0.600512 0.569963
10 1 0.510826 0.55292 0.59589
22 2 0.51716 0.57971 0.592404
2 3 0.513391 0.550549 0.581348
28 2 0.535971 0.564818 0.590034
12 1 0.534651 0.559935 0.599876
144 2 0.510824 0.612497 0.620368
65 2 0.529189 0.610789 0.614657
24 2 0.508499 0.543817 0.601278
25 2 0.501085 0.557672 0.595113
1 3 0.503889 0.582084 0.60902
23 2 0.524756 0.582979 0.607986
9 1 0.516983 0.577365 0.603372
8 1 0.519898 0.561986 0.60501
29 2 0.53644 0.549051 0.598483
219 2 0.587264 0.536669 0.579109
78 2 0.557997 0.581919 0.582867
30 2 0.546628 0.575431 0.60775
188 1 0.568442 0.543765 0.585538
216 2 0.562206 0.552768 0.58589
190 1 0.580571 0.545422 0.580336
220 2 0.584003 0.554194 0.575177
46 3 0.548687 0.595965 0.600758
130 2 0.582326 0.553814 0.604449
128 2 0.593731 0.572537 0.593593
100 1 0.597715 0.567528 0.603034
102 1 0.590501 0.557511 0.60972
207 2 0.579875 0.605328 0.60084
205 2 0.565925 0.600825 0.616616
92 1 0.609062 0.573756 0.609029
120 2 0.614424 0.582496 0.60466
80 3 0.674627 0.567505 0.599446
133 2 0.652211 0.5538 0.594493
105 1 0.65105 0.561021 0.603021
111 1 0.685796 0.572281 0.607333
125 2 0.630065 0.560096 0.606727
138 2 0.685008 0.583249 0.60998
97 1 0.639204 0.564042 0.609476
109 1 0.66225 0.56902 0.60674
126 2 0.631099 0.597628 0.620111
142 2 0.703327 0.573149 0.59412
113 1 0.700571 0.569301 0.604066
143 2 0.703022 0.559234 0.602635
148 2 0.747824 0.581031 0.611595
84 3 0.726704 0.577985 0.600732
115 1 0.721528 0.578906 0.612516
119 1 0.74408 0.58366 0.621738
149 2 0.750875 0.586684 0.629378
50 1 0.535544 0.617355 0.608087
147 2 0.513766 0.619151 0.594608
118 1 0.507971 0.625328 0.601632
146 2 0.499774 0.630922 0.596596
114 1 0.511865 0.648922 0.613484
51 1 0.517054 0.634356 0.61059
62 2 0.531736 0.638765 0.591149
83 3 0.521002 0.65775 0.61388
43 3 0.497635 0.649343 0.615168
116 1 0.507033 0.622553 0.616047
47 1 0.532137 0.631757 0.610758
69 2 0.495294 0.657945 0.618006
68 2 0.497053 0.624416 0.62021
66 2 0.545124 0.615224 0.611246
181 1 0.584159 0.613014 0.607327
70 2 0.569934 0.618757 0.589191
73 2 0.579541 0.616951 0.566866
58 1 0.57287 0.625861 0.569958
55 1 0.567688 0.626919 0.582362
52 1 0.558036 0.638261 0.585544
40 3 0.552549 0.635923 0.598609
74 2 0.569081 0.633125 0.562646
208 2 0.576472 0.618997 0.612283
48 1 0.538075 0.6404 0.600434
44 3 0.555478 0.648302 0.577932
183 1 0.594414 0.621356 0.599245
212 2 0.590677 0.624721 0.589328
61 2 0.538126 0.651237 0.603126
211 2 0.603748 0.615561 0.59739
152 3 0.598846 0.634148 0.605648
185 1 0.607812 0.641761 0.596903
154 3 0.611179 0.637741 0.585238
217 2 0.623504 0.660647 0.585625
38 2 0.512942 0.515611 0.66008
21 1 0.511093 0.525154 0.655205
33 2 0.520813 0.52012 0.636454
18 1 0.515765 0.528023 0.642685
204 2 0.53886 0.528446 0.654367
151 3 0.540025 0.519456 0.630644
180 1 0.548066 0.530662 0.635236
123 2 0.605876 0.533794 0.645249
176 1 0.544751 0.534741 0.64825
122 2 0.588149 0.54413 0.626633
131 2 0.625101 0.528627 0.662036
34 2 0.486584 0.596118 0.649541
19 1 0.494622 0.594552 0.642512
13 1 0.505661 0.588182 0.622104
5 3 0.517551 0.590005 0.627599
35 2 0.50393 0.598834 0.645308
39 2 0.504341 0.532462 0.660125
31 2 0.483385 0.585656 0.625526
16 1 0.492901 0.589236 0.630153
7 3 0.510386 0.552298 0.645165
15 1 0.514845 0.542403 0.637966
27 2 0.524811 0.563688 0.626581
26 2 0.507544 0.561262 0.624044
11 1 0.517559 0.55832 0.620103
3 3 0.518452 0.544036 0.624243
199 2 0.524112 0.599852 0.65558
201 2 0.527699 0.599718 0.679972
171 1 0.53219 0.592861 0.659402
173 1 0.533792 0.593343 0.673514
191 2 0.535159 0.580889 0.641981
150 3 0.591546 0.606396 0.618362
95 1 0.613526 0.540507 0.646787
4 3 0.543867 0.566313 0.609188
94 1 0.594781 0.552259 0.622323
178 1 0.554734 0.538621 0.6259
198 2 0.564605 0.558445 0.623813
177 1 0.571236 0.593884 0.622707
88 1 0.6062 0.558002 0.628444
86 1 0.613108 0.568881 0.621708
200 2 0.60214 0.557829 0.673231
197 2 0.553167 0.583688 0.628014
193 2 0.547927 0.588657 0.688376
179 1 0.58503 0.59555 0.625166
196 2 0.544991 0.552959 0.660878
169 1 0.563783 0.584737 0.630229
163 1 0.53865 0.582649 0.652021
165 1 0.545232 0.586978 0.67868
168 1 0.549264 0.547432 0.652378
203 2 0.602241 0.589223 0.637058
175 1 0.591573 0.58731 0.634633
157 1 0.550446 0.576668 0.656853
170 1 0.559655 0.55139 0.630782
159 1 0.553803 0.57942 0.6704
161 1 0.570427 0.576991 0.639875
156 1 0.56213 0.568809 0.649981
158 1 0.57135 0.566095 0.662283
160 1 0.566474 0.572482 0.674078
162 1 0.557454 0.555366 0.644243
164 1 0.583943 0.5602 0.661923
167 1 0.584347 0.578321 0.642368
172 1 0.592166 0.561269 0.673591
192 2 0.587398 0.555329 0.653231
195 2 0.590108 0.572376 0.6499
166 1 0.574885 0.573724 0.685964
174 1 0.5877 0.567952 0.685041
89 1 0.615633 0.552356 0.638971
71 2 0.558715 0.605664 0.642558
75 2 0.581793 0.609521 0.655533
56 1 0.563547 0.615651 0.6446
59 1 0.574792 0.617633 0.651976
76 2 0.579174 0.62669 0.654904
202 2 0.593861 0.568697 0.69332
103 1 0.624165 0.53788 0.655888
129 2 0.644372 0.544308 0.662061
101 1 0.635032 0.546852 0.656686
132 2 0.605317 0.600011 0.6626
124 2 0.617939 0.578657 0.656209
104 1 0.610459 0.599245 0.653046
108 1 0.610996 0.610867 0.644651
96 1 0.617447 0.587171 0.649439
139 2 0.682718 0.567711 0.617551
91 1 0.638567 0.573324 0.620518
107 1 0.66198 0.577691 0.618144
135 2 0.670847 0.583227 0.62128
87 1 0.626759 0.561552 0.639651
85 1 0.625901 0.573081 0.628766
99 1 0.650192 0.579759 0.625569
90 1 0.623118 0.586725 0.636602
106 1 0.619135 0.610621 0.632823
98 1 0.624914 0.598518 0.628928
93 1 0.636305 0.559072 0.64954
121 2 0.644389 0.565725 0.65108
127 2 0.65067 0.585631 0.634602
82 3 0.708177 0.57558 0.615681
117 1 0.731012 0.583615 0.623755
145 2 0.727742 0.586475 0.633478
64 2 0.529552 0.637155 0.631818
63 2 0.543846 0.644272 0.623247
49 1 0.537684 0.635026 0.624265
140 2 0.586101 0.641438 0.650238
79 3 0.60435 0.622583 0.649338
41 3 0.546044 0.624165 0.629874
53 1 0.557776 0.628035 0.637722
215 2 0.608641 0.65716 0.612576
45 3 0.561837 0.639815 0.640788
67 2 0.582463 0.653206 0.631906
81 3 0.59108 0.655294 0.635408
112 1 0.594926 0.644985 0.645054
141 2 0.602605 0.647987 0.652397
137 2 0.593844 0.627462 0.631893
110 1 0.600825 0.632039 0.638593
136 2 0.609039 0.634291 0.631776
187 1 0.612487 0.654511 0.603133
134 2 0.61984 0.619516 0.626711
189 1 0.620433 0.662526 0.595867
218 2 0.624281 0.670811 0.6009
194 2 0.572391 0.580343 0.693875
