ITEM: TIMESTEP
1125000
ITEM: NUMBER OF ATOMS
220
ITEM: BOX BOUNDS ff ff ff
-5.0000000000000000e+01 5.0000000000000000e+01
-5.0000000000000000e+01 5.0000000000000000e+01
-5.0000000000000000e+01 5.0000000000000000e+01
ITEM: ATOMS id type xs ys zs
117 1 0.544277 0.536736 0.523751
145 2 0.554784 0.536769 0.52424
149 2 0.543116 0.52931 0.504551
119 1 0.537736 0.533247 0.512571
148 2 0.526883 0.534254 0.511735
38 2 0.620627 0.541847 0.529381
39 2 0.610871 0.556479 0.524891
21 1 0.618077 0.5519 0.531273
115 1 0.53649 0.541194 0.536537
82 3 0.545697 0.543052 0.547391
139 2 0.548337 0.536925 0.575556
143 2 0.530008 0.542953 0.558705
133 2 0.553866 0.531894 0.591575
105 1 0.550926 0.538084 0.599575
97 1 0.554332 0.534634 0.61285
84 3 0.523853 0.540829 0.53764
194 2 0.491067 0.576305 0.619467
166 1 0.499051 0.577497 0.625874
160 1 0.510375 0.584115 0.620085
159 1 0.513687 0.590822 0.607321
193 2 0.49567 0.589226 0.594677
165 1 0.506151 0.592571 0.595305
111 1 0.54607 0.547012 0.57268
80 3 0.53989 0.554686 0.584087
201 2 0.50673 0.599922 0.57516
173 1 0.512447 0.598315 0.584207
157 1 0.527588 0.595618 0.608134
171 1 0.525935 0.603093 0.584975
142 2 0.535404 0.559579 0.557838
113 1 0.53889 0.548891 0.55906
135 2 0.530892 0.565473 0.605659
163 1 0.53364 0.601698 0.597104
199 2 0.529455 0.608287 0.575332
138 2 0.556072 0.55255 0.573159
109 1 0.542772 0.549384 0.597028
18 1 0.622507 0.558516 0.541947
15 1 0.615961 0.572607 0.54477
7 3 0.60742 0.577034 0.53632
210 2 0.593499 0.568489 0.600352
198 2 0.55127 0.58812 0.600496
206 2 0.568549 0.572354 0.59849
209 2 0.58178 0.555729 0.603766
182 1 0.59033 0.561324 0.608025
178 1 0.566391 0.57752 0.607996
170 1 0.55432 0.585021 0.609716
3 3 0.620258 0.577913 0.556957
11 1 0.613139 0.590626 0.561602
27 2 0.602978 0.587071 0.562561
12 1 0.613819 0.588376 0.587216
28 2 0.622745 0.588341 0.593953
184 1 0.602428 0.552485 0.607159
213 2 0.60625 0.547501 0.598423
8 1 0.617867 0.596904 0.574566
33 2 0.630543 0.554325 0.547772
107 1 0.537743 0.557216 0.607798
4 3 0.602974 0.59565 0.593459
72 2 0.570181 0.602673 0.617249
29 2 0.610972 0.57789 0.584736
26 2 0.614187 0.597573 0.552923
30 2 0.607546 0.60152 0.600062
153 3 0.615287 0.560924 0.607808
22 2 0.602682 0.610285 0.577728
23 2 0.612186 0.614714 0.563002
9 1 0.613016 0.610774 0.57361
77 2 0.571098 0.611193 0.593251
191 2 0.542565 0.607734 0.598184
57 1 0.576641 0.610634 0.614215
190 1 0.651522 0.56255 0.614665
220 2 0.658994 0.569886 0.614092
36 2 0.677153 0.558768 0.591669
24 2 0.63461 0.597648 0.562993
10 1 0.632539 0.595551 0.574069
2 3 0.639141 0.582043 0.578359
32 2 0.65126 0.561974 0.58786
14 1 0.652594 0.582839 0.582492
17 1 0.65857 0.569447 0.58666
6 3 0.659434 0.593589 0.582759
37 2 0.67923 0.576348 0.588682
20 1 0.67182 0.567722 0.588906
25 2 0.636126 0.603481 0.579744
186 1 0.627886 0.554995 0.611221
216 2 0.635954 0.575825 0.610765
188 1 0.639075 0.565592 0.612416
35 2 0.60123 0.658175 0.587119
5 3 0.600182 0.636917 0.574526
13 1 0.611842 0.635162 0.5797
60 1 0.57816 0.61387 0.601011
78 2 0.586835 0.620036 0.598529
19 1 0.61159 0.657796 0.589111
34 2 0.616733 0.666785 0.592328
16 1 0.619166 0.647027 0.585848
31 2 0.63009 0.646991 0.589051
1 3 0.620428 0.623356 0.578389
67 2 0.543417 0.4559 0.657437
132 2 0.521564 0.508026 0.641002
79 3 0.529118 0.494323 0.656412
104 1 0.530657 0.512095 0.644874
124 2 0.530542 0.526616 0.630184
110 1 0.53677 0.484142 0.663886
140 2 0.534996 0.46481 0.674073
137 2 0.537269 0.487898 0.674046
112 1 0.531763 0.469673 0.664609
108 1 0.537938 0.505607 0.654701
141 2 0.520814 0.471121 0.664102
81 3 0.537317 0.461981 0.653431
136 2 0.547173 0.484443 0.661508
125 2 0.559523 0.525032 0.616486
134 2 0.554817 0.507207 0.669231
126 2 0.563191 0.528089 0.658559
96 1 0.536516 0.522932 0.638555
90 1 0.549032 0.528144 0.643058
106 1 0.549538 0.511156 0.660671
98 1 0.554817 0.522265 0.654459
120 2 0.576021 0.524567 0.627062
128 2 0.598641 0.523957 0.634933
92 1 0.579912 0.532324 0.63271
100 1 0.592837 0.532255 0.637778
174 1 0.498893 0.57436 0.639309
158 1 0.522354 0.58575 0.627784
156 1 0.533971 0.594022 0.622555
197 2 0.52051 0.605111 0.646481
161 1 0.534027 0.60846 0.629371
202 2 0.489866 0.570796 0.643738
172 1 0.511061 0.575241 0.647088
200 2 0.511352 0.571729 0.657062
164 1 0.522941 0.580552 0.641271
192 2 0.530787 0.581903 0.64834
121 2 0.530347 0.552171 0.64795
129 2 0.527687 0.570227 0.665479
162 1 0.54827 0.587497 0.621922
180 1 0.573978 0.574768 0.620089
151 3 0.586203 0.567111 0.621246
214 2 0.601519 0.54417 0.614738
86 1 0.570988 0.541525 0.638972
102 1 0.596989 0.540038 0.648767
85 1 0.555142 0.541838 0.63741
130 2 0.606664 0.538028 0.653243
88 1 0.574861 0.549853 0.649407
94 1 0.588491 0.549431 0.654539
122 2 0.591732 0.554606 0.662845
93 1 0.538972 0.556479 0.651671
101 1 0.537382 0.566533 0.661784
103 1 0.548437 0.572287 0.668433
131 2 0.547924 0.578867 0.677258
87 1 0.552004 0.553452 0.647099
91 1 0.550958 0.544634 0.623047
89 1 0.563073 0.558264 0.654524
95 1 0.561417 0.568607 0.66425
123 2 0.569518 0.57338 0.668775
99 1 0.540747 0.554405 0.620757
127 2 0.537133 0.560215 0.629816
196 2 0.551745 0.588311 0.64294
204 2 0.573912 0.576834 0.642289
176 1 0.568657 0.57918 0.632697
168 1 0.556109 0.585657 0.633708
144 2 0.584909 0.587369 0.661463
116 1 0.59367 0.583897 0.656969
68 2 0.591582 0.57398 0.651727
147 2 0.604472 0.588229 0.675495
118 1 0.605752 0.583745 0.66566
51 1 0.605999 0.592869 0.6522
61 2 0.593857 0.604828 0.670094
52 1 0.602754 0.61207 0.691246
40 3 0.609295 0.615224 0.678798
48 1 0.600995 0.611649 0.66678
146 2 0.611572 0.574432 0.666007
42 3 0.589234 0.611367 0.635974
195 2 0.547789 0.615965 0.615515
155 3 0.629488 0.542627 0.613863
219 2 0.654405 0.552492 0.61566
47 1 0.60727 0.607651 0.653511
114 1 0.613021 0.586517 0.639555
49 1 0.621569 0.612685 0.653876
63 2 0.627975 0.606759 0.661185
64 2 0.626288 0.613382 0.644237
43 3 0.611086 0.572379 0.641755
69 2 0.611642 0.567065 0.633604
83 3 0.619125 0.592258 0.629811
169 1 0.527218 0.612125 0.641269
177 1 0.527861 0.625674 0.646294
205 2 0.522325 0.627903 0.655206
208 2 0.528292 0.649058 0.662674
152 3 0.521247 0.677044 0.663653
207 2 0.519599 0.652658 0.647917
181 1 0.529351 0.654488 0.653448
212 2 0.534301 0.673872 0.648227
183 1 0.531856 0.66913 0.657038
211 2 0.54071 0.6703 0.662471
185 1 0.520398 0.689787 0.657067
215 2 0.500928 0.693045 0.667947
150 3 0.538951 0.648958 0.643955
179 1 0.536221 0.634837 0.64017
44 3 0.590269 0.609047 0.692378
50 1 0.601741 0.616464 0.642657
62 2 0.594 0.619206 0.664301
46 3 0.597026 0.624283 0.617653
54 1 0.588314 0.616351 0.622534
167 1 0.542427 0.618874 0.623882
66 2 0.598549 0.626306 0.646905
175 1 0.54355 0.631835 0.628268
203 2 0.549693 0.639847 0.623355
65 2 0.608659 0.61949 0.634293
53 1 0.636383 0.630456 0.660346
45 3 0.646228 0.622339 0.659893
75 2 0.654072 0.659351 0.669239
56 1 0.638217 0.64527 0.664884
71 2 0.629791 0.651937 0.663522
41 3 0.623158 0.627547 0.656124
76 2 0.659295 0.642108 0.666978
59 1 0.65124 0.649005 0.667732
154 3 0.529187 0.694936 0.649368
187 1 0.508458 0.697882 0.662158
189 1 0.506176 0.709787 0.657469
217 2 0.512164 0.714956 0.650213
218 2 0.496769 0.714072 0.660763
55 1 0.611745 0.616425 0.702521
74 2 0.593439 0.615827 0.714862
70 2 0.622858 0.618661 0.70118
58 1 0.604272 0.617132 0.714193
73 2 0.608757 0.622247 0.722327
