ITEM: TIMESTEP
1250000
ITEM: NUMBER OF ATOMS
220
ITEM: BOX BOUNDS ff ff ff
-5.0000000000000000e+01 5.0000000000000000e+01
-5.0000000000000000e+01 5.0000000000000000e+01
-5.0000000000000000e+01 5.0000000000000000e+01
ITEM: ATOMS id type xs ys zs
35 2 0.533374 0.602785 0.513576
19 1 0.541072 0.595378 0.514689
34 2 0.541072 0.586987 0.508758
16 1 0.549648 0.596889 0.524636
5 3 0.543232 0.61944 0.525882
39 2 0.560309 0.679013 0.550961
38 2 0.542701 0.684193 0.553616
143 2 0.525486 0.51616 0.608607
113 1 0.524855 0.524452 0.614832
82 3 0.527141 0.537884 0.608952
70 2 0.589934 0.512162 0.602564
68 2 0.568712 0.532515 0.582737
40 3 0.588997 0.535624 0.609939
55 1 0.599617 0.516167 0.599566
52 1 0.601207 0.530974 0.604135
138 2 0.545838 0.527358 0.622112
58 1 0.608357 0.510362 0.59121
73 2 0.606372 0.500439 0.58747
74 2 0.617591 0.514197 0.590864
149 2 0.515927 0.580707 0.600725
145 2 0.528789 0.558761 0.595176
117 1 0.520798 0.560122 0.603526
119 1 0.514102 0.571266 0.605987
148 2 0.507453 0.57082 0.614029
115 1 0.516406 0.547572 0.610703
32 2 0.535728 0.581214 0.560606
20 1 0.541199 0.567559 0.575667
36 2 0.53552 0.559793 0.572673
144 2 0.5863 0.537094 0.580342
6 3 0.559435 0.585802 0.583945
14 1 0.550558 0.590508 0.575677
13 1 0.549611 0.610214 0.532088
31 2 0.556195 0.588582 0.527116
2 3 0.546488 0.603746 0.57334
1 3 0.557363 0.609656 0.544518
114 1 0.559612 0.549616 0.59766
116 1 0.576375 0.539951 0.58207
51 1 0.573329 0.553097 0.589923
118 1 0.573662 0.552835 0.574239
47 1 0.584259 0.559121 0.598568
48 1 0.586361 0.55064 0.610808
83 3 0.557945 0.55554 0.60865
66 2 0.58 0.579738 0.594363
43 3 0.55011 0.54228 0.589447
146 2 0.563889 0.55609 0.569356
69 2 0.54338 0.538303 0.595194
63 2 0.603772 0.562121 0.598982
50 1 0.580524 0.572913 0.602637
147 2 0.582485 0.556576 0.568292
49 1 0.59723 0.559167 0.591683
64 2 0.600385 0.54981 0.586165
30 2 0.582668 0.606249 0.583212
12 1 0.576239 0.615104 0.562477
29 2 0.577612 0.606315 0.557369
54 1 0.591047 0.594104 0.610762
46 3 0.583788 0.603016 0.604606
41 3 0.59474 0.569585 0.580391
71 2 0.594709 0.586881 0.562487
17 1 0.541832 0.579431 0.569568
61 2 0.577686 0.54845 0.616583
53 1 0.605728 0.578417 0.578613
59 1 0.616162 0.588569 0.557691
56 1 0.605032 0.585126 0.564764
75 2 0.617112 0.593192 0.548303
4 3 0.583224 0.612698 0.575708
28 2 0.583031 0.622698 0.556946
37 2 0.547616 0.567132 0.583767
78 2 0.594449 0.618807 0.613898
45 3 0.615325 0.581058 0.586924
76 2 0.625572 0.586187 0.561972
67 2 0.622847 0.572294 0.602901
217 2 0.647674 0.611473 0.605755
44 3 0.611706 0.537755 0.601202
81 3 0.627094 0.563478 0.603711
140 2 0.636325 0.569572 0.620282
218 2 0.665257 0.617904 0.609126
25 2 0.548606 0.623736 0.581245
10 1 0.555427 0.616553 0.576024
24 2 0.563927 0.612883 0.5823
23 2 0.543546 0.621527 0.556187
9 1 0.553501 0.62171 0.553239
8 1 0.563175 0.621522 0.564597
27 2 0.573984 0.637757 0.576011
22 2 0.553768 0.631246 0.547045
206 2 0.578262 0.620729 0.616268
21 1 0.551151 0.678545 0.556504
7 3 0.572964 0.665349 0.563217
15 1 0.562025 0.660811 0.568588
33 2 0.542342 0.668758 0.573592
11 1 0.566916 0.636348 0.567231
18 1 0.550516 0.669988 0.566551
26 2 0.57217 0.639507 0.557851
3 3 0.556741 0.64713 0.569968
209 2 0.54971 0.642721 0.591505
151 3 0.560485 0.632081 0.606753
155 3 0.549695 0.67855 0.621341
186 1 0.551662 0.677925 0.608541
210 2 0.540715 0.634503 0.604464
182 1 0.549343 0.640192 0.602246
153 3 0.551636 0.666718 0.600249
219 2 0.555254 0.703881 0.617178
188 1 0.553784 0.690838 0.601161
190 1 0.556163 0.703212 0.606306
216 2 0.554397 0.689999 0.5908
220 2 0.558886 0.712292 0.600987
139 2 0.539951 0.511464 0.625644
142 2 0.514813 0.524244 0.619276
111 1 0.536635 0.521936 0.624644
80 3 0.532842 0.525399 0.639176
101 1 0.591246 0.509948 0.685855
129 2 0.590763 0.499297 0.683558
87 1 0.583181 0.531216 0.679137
93 1 0.585941 0.517845 0.675534
121 2 0.58349 0.513838 0.6658
89 1 0.585475 0.535594 0.692888
103 1 0.596709 0.515265 0.697919
107 1 0.541645 0.535318 0.660526
109 1 0.543519 0.529057 0.647646
133 2 0.558385 0.522747 0.632817
91 1 0.56586 0.537109 0.662975
105 1 0.556733 0.526804 0.642913
126 2 0.604068 0.537255 0.670238
97 1 0.567802 0.531614 0.650125
125 2 0.577269 0.529928 0.645665
84 3 0.506012 0.54659 0.618061
135 2 0.531547 0.537254 0.664637
193 2 0.531947 0.589908 0.681734
202 2 0.546497 0.55722 0.646379
194 2 0.538042 0.570562 0.665995
166 1 0.545548 0.574201 0.659162
62 2 0.593498 0.555797 0.617827
42 3 0.589946 0.579999 0.612287
65 2 0.570405 0.573957 0.607798
88 1 0.577582 0.548003 0.695071
99 1 0.552176 0.539535 0.668278
127 2 0.549606 0.544593 0.677164
85 1 0.576915 0.542389 0.671208
57 1 0.604524 0.601053 0.615775
60 1 0.604304 0.613845 0.615838
106 1 0.610224 0.550949 0.65467
98 1 0.600658 0.545738 0.664085
90 1 0.587545 0.549005 0.661725
198 2 0.583193 0.611 0.636686
108 1 0.606289 0.558974 0.644093
86 1 0.572232 0.551981 0.682519
96 1 0.582959 0.557995 0.651651
200 2 0.558275 0.568578 0.629432
104 1 0.592318 0.562455 0.642498
124 2 0.572408 0.55963 0.649989
132 2 0.589696 0.569152 0.634685
177 1 0.59544 0.582617 0.669606
197 2 0.574028 0.583664 0.671582
169 1 0.582825 0.587964 0.667584
192 2 0.570653 0.590263 0.63315
174 1 0.550549 0.566627 0.64872
172 1 0.558342 0.573318 0.638842
164 1 0.565309 0.585268 0.640976
161 1 0.582345 0.600742 0.662103
156 1 0.567741 0.605076 0.657942
160 1 0.551964 0.586201 0.662154
158 1 0.562193 0.59179 0.653571
120 2 0.559961 0.566148 0.671793
92 1 0.564157 0.563334 0.681602
170 1 0.57419 0.615354 0.636226
205 2 0.596548 0.573529 0.674685
179 1 0.607359 0.58945 0.665441
159 1 0.549981 0.596607 0.67292
157 1 0.559597 0.607419 0.67134
165 1 0.539015 0.597846 0.681578
72 2 0.61385 0.596683 0.618127
173 1 0.537625 0.609153 0.689766
79 3 0.613356 0.563583 0.632531
175 1 0.606929 0.602623 0.661045
167 1 0.594263 0.608379 0.660005
162 1 0.565237 0.616609 0.647264
171 1 0.548059 0.618587 0.689281
163 1 0.559365 0.618503 0.679851
100 1 0.562614 0.572131 0.692651
128 2 0.557782 0.582079 0.692322
137 2 0.616667 0.54552 0.620319
134 2 0.620583 0.548752 0.65615
136 2 0.627559 0.548158 0.633925
141 2 0.641205 0.55403 0.61325
150 3 0.618798 0.580976 0.666746
110 1 0.622176 0.553174 0.626802
112 1 0.632603 0.559963 0.616878
152 3 0.64624 0.592549 0.640929
185 1 0.644741 0.601839 0.629828
189 1 0.656672 0.613041 0.61223
187 1 0.657706 0.607647 0.62417
215 2 0.667248 0.607601 0.630083
154 3 0.633749 0.606562 0.624608
181 1 0.63152 0.586834 0.662006
208 2 0.639398 0.580609 0.666419
207 2 0.633097 0.596842 0.667114
77 2 0.612885 0.619761 0.61773
214 2 0.538532 0.655435 0.612424
184 1 0.548689 0.654282 0.608635
213 2 0.555634 0.653227 0.617615
178 1 0.571147 0.621713 0.623864
203 2 0.615409 0.60786 0.657436
180 1 0.559305 0.628435 0.620938
195 2 0.593024 0.61701 0.652927
204 2 0.541028 0.634682 0.63067
176 1 0.550336 0.629481 0.631898
196 2 0.544763 0.624593 0.651825
168 1 0.552906 0.623863 0.644956
191 2 0.564778 0.627613 0.677379
183 1 0.632422 0.588877 0.64673
211 2 0.629909 0.579611 0.641291
212 2 0.626033 0.596708 0.644065
95 1 0.593875 0.528275 0.70157
131 2 0.602284 0.508833 0.705179
123 2 0.598433 0.533334 0.70977
201 2 0.528913 0.608509 0.696697
122 2 0.578946 0.55443 0.716257
94 1 0.575116 0.556295 0.706524
102 1 0.568678 0.568899 0.705066
130 2 0.568385 0.57456 0.714965
199 2 0.546939 0.626621 0.696325
