ITEM: TIMESTEP
1010000
ITEM: NUMBER OF ATOMS
220
ITEM: BOX BOUNDS ff ff ff
-5.0000000000000000e+01 5.0000000000000000e+01
-5.0000000000000000e+01 5.0000000000000000e+01
-5.0000000000000000e+01 5.0000000000000000e+01
ITEM: ATOMS id type xs ys zs
122 2 0.524535 0.571315 0.522947
94 1 0.533948 0.567314 0.526233
130 2 0.538775 0.557525 0.508005
102 1 0.542035 0.559428 0.51805
128 2 0.561123 0.549985 0.516397
100 1 0.555251 0.556343 0.52234
92 1 0.561111 0.562802 0.533371
126 2 0.567314 0.58463 0.533482
134 2 0.582738 0.603179 0.528656
120 2 0.571503 0.561192 0.535554
140 2 0.619246 0.628306 0.539999
111 1 0.568192 0.533817 0.607093
139 2 0.55902 0.529998 0.602205
80 3 0.577358 0.537781 0.596297
142 2 0.581234 0.529039 0.625452
113 1 0.575344 0.523742 0.617063
143 2 0.583442 0.518317 0.611924
138 2 0.565796 0.542001 0.614106
82 3 0.568964 0.514231 0.626134
123 2 0.513872 0.586762 0.543325
131 2 0.511919 0.602107 0.56213
95 1 0.521635 0.58692 0.551541
103 1 0.520683 0.595966 0.562419
202 2 0.531918 0.577144 0.591796
129 2 0.530066 0.605276 0.580159
101 1 0.531326 0.598727 0.572102
174 1 0.536431 0.574034 0.600726
200 2 0.51842 0.577619 0.613103
172 1 0.529071 0.574193 0.613197
89 1 0.533656 0.579372 0.550337
88 1 0.539378 0.571486 0.539249
98 1 0.572727 0.588529 0.54164
106 1 0.581106 0.599318 0.538803
86 1 0.553 0.569525 0.542852
135 2 0.549066 0.542748 0.589973
93 1 0.542667 0.590387 0.571501
121 2 0.549837 0.590962 0.579287
109 1 0.570373 0.54491 0.585979
107 1 0.556921 0.548117 0.5841
105 1 0.579635 0.551617 0.577412
133 2 0.589861 0.549712 0.578551
166 1 0.550309 0.570485 0.599997
87 1 0.543911 0.582546 0.56026
127 2 0.540182 0.559005 0.573074
194 2 0.555794 0.570187 0.590577
160 1 0.556932 0.566659 0.611859
46 3 0.53987 0.603332 0.603804
85 1 0.556916 0.574994 0.557113
91 1 0.561106 0.562842 0.565999
124 2 0.573132 0.589357 0.57622
90 1 0.56797 0.585266 0.554838
96 1 0.57437 0.591351 0.565588
99 1 0.551317 0.556266 0.574013
125 2 0.582432 0.562896 0.560183
97 1 0.574893 0.560067 0.567227
104 1 0.584482 0.600797 0.562343
108 1 0.588114 0.605015 0.549592
193 2 0.581446 0.569733 0.595498
165 1 0.582303 0.565622 0.6052
132 2 0.590124 0.605037 0.570648
66 2 0.561826 0.596724 0.602506
50 1 0.567266 0.600103 0.611876
41 3 0.601929 0.595842 0.606943
63 2 0.583036 0.59253 0.597548
49 1 0.588958 0.600698 0.601053
47 1 0.5788 0.60929 0.608145
40 3 0.568832 0.615352 0.584065
201 2 0.602325 0.560101 0.601943
64 2 0.592227 0.605419 0.590526
70 2 0.564807 0.613809 0.556255
65 2 0.571785 0.591585 0.616128
173 1 0.594236 0.55966 0.608864
53 1 0.609854 0.58725 0.598745
45 3 0.60607 0.583446 0.587121
59 1 0.628594 0.572287 0.598722
76 2 0.62509 0.569771 0.588906
56 1 0.622204 0.581799 0.606192
75 2 0.635995 0.565398 0.603371
137 2 0.611258 0.612914 0.559616
79 3 0.596317 0.61604 0.5456
74 2 0.569706 0.645829 0.556013
136 2 0.599612 0.625331 0.564684
110 1 0.605041 0.621728 0.556036
48 1 0.573655 0.619149 0.598008
62 2 0.5665 0.625225 0.602566
55 1 0.566091 0.624272 0.560163
73 2 0.570142 0.634304 0.542616
58 1 0.568752 0.635267 0.552501
52 1 0.567576 0.626346 0.575221
44 3 0.568119 0.63873 0.578029
61 2 0.580684 0.626629 0.594469
34 2 0.585773 0.663173 0.607353
35 2 0.596263 0.648005 0.607012
112 1 0.615322 0.631445 0.549779
141 2 0.610459 0.641089 0.548309
81 3 0.626887 0.633128 0.559171
67 2 0.633508 0.626177 0.559381
210 2 0.552049 0.501929 0.665357
209 2 0.546023 0.486985 0.659008
204 2 0.535377 0.519789 0.625474
176 1 0.54154 0.523956 0.633317
151 3 0.540533 0.505132 0.647251
180 1 0.547038 0.51734 0.644845
182 1 0.54297 0.49819 0.660329
196 2 0.538587 0.542201 0.622755
184 1 0.531033 0.497995 0.669973
214 2 0.52755 0.50865 0.670697
84 3 0.591652 0.504363 0.630318
213 2 0.523327 0.492605 0.665484
115 1 0.578793 0.50444 0.630477
149 2 0.578446 0.47599 0.649202
119 1 0.582861 0.484194 0.644854
117 1 0.574436 0.492016 0.638063
148 2 0.594368 0.484826 0.644422
145 2 0.564027 0.489866 0.638616
168 1 0.544219 0.537767 0.631158
206 2 0.560513 0.519883 0.661524
178 1 0.556576 0.52404 0.652559
170 1 0.560889 0.537109 0.648647
78 2 0.519319 0.613492 0.61202
77 2 0.511638 0.609393 0.628794
60 1 0.520364 0.609647 0.622132
164 1 0.535451 0.567854 0.6242
192 2 0.529856 0.565224 0.633171
203 2 0.542142 0.568556 0.677158
57 1 0.53268 0.605498 0.626529
54 1 0.543695 0.605543 0.616044
195 2 0.551586 0.553261 0.660093
175 1 0.547469 0.572726 0.668745
167 1 0.552977 0.563797 0.659321
150 3 0.54344 0.594826 0.677764
159 1 0.571312 0.564976 0.614611
72 2 0.534524 0.600892 0.637002
158 1 0.549053 0.564545 0.62375
171 1 0.596175 0.554977 0.62216
42 3 0.556655 0.605524 0.621469
199 2 0.606048 0.550446 0.625812
161 1 0.557943 0.569152 0.647264
156 1 0.558318 0.559207 0.634924
162 1 0.553958 0.544817 0.638551
198 2 0.567882 0.541675 0.655288
179 1 0.548947 0.58683 0.667183
205 2 0.558713 0.602445 0.654135
177 1 0.556213 0.591756 0.655944
169 1 0.560918 0.583105 0.645762
197 2 0.565763 0.586558 0.636924
191 2 0.586009 0.551911 0.641786
163 1 0.585463 0.555015 0.631522
157 1 0.572828 0.559809 0.627824
21 1 0.59052 0.579682 0.671535
15 1 0.602696 0.60117 0.670059
18 1 0.589341 0.592574 0.668072
38 2 0.582557 0.572936 0.668834
33 2 0.58049 0.596356 0.663747
183 1 0.553655 0.615359 0.688953
39 2 0.599244 0.574549 0.675841
181 1 0.545868 0.609518 0.676858
152 3 0.567665 0.609146 0.688769
7 3 0.612577 0.595226 0.675487
207 2 0.551587 0.611949 0.667914
147 2 0.592955 0.594912 0.628479
3 3 0.601583 0.614334 0.665721
208 2 0.536123 0.614061 0.674888
118 1 0.591859 0.604989 0.631283
51 1 0.586028 0.615086 0.620129
146 2 0.589544 0.606934 0.641581
71 2 0.624745 0.584964 0.61609
27 2 0.622907 0.617467 0.663882
37 2 0.670844 0.623756 0.688845
144 2 0.608948 0.611405 0.616733
26 2 0.61697 0.619796 0.680219
30 2 0.590951 0.636202 0.687735
11 1 0.614656 0.622299 0.669619
211 2 0.555548 0.625939 0.68882
83 3 0.572238 0.635445 0.620556
68 2 0.604852 0.623401 0.630121
116 1 0.6013 0.614096 0.624243
28 2 0.594226 0.643188 0.665609
29 2 0.605355 0.654856 0.673255
12 1 0.602706 0.64441 0.672675
8 1 0.613918 0.636464 0.665605
69 2 0.578176 0.636595 0.643329
43 3 0.581221 0.627464 0.64146
114 1 0.578307 0.62675 0.627637
31 2 0.592372 0.667697 0.63079
16 1 0.595262 0.659195 0.625089
1 3 0.60588 0.649652 0.646337
19 1 0.592183 0.656757 0.613012
13 1 0.604838 0.650078 0.632405
9 1 0.611219 0.63602 0.650859
4 3 0.598937 0.641365 0.686454
17 1 0.659329 0.624831 0.670741
36 2 0.678567 0.616863 0.674367
20 1 0.669893 0.621687 0.67824
5 3 0.610675 0.642039 0.62354
25 2 0.625777 0.644285 0.680029
24 2 0.625448 0.653336 0.665
10 1 0.626197 0.643637 0.669246
23 2 0.620684 0.634634 0.645862
22 2 0.605146 0.62824 0.647635
32 2 0.65932 0.621688 0.660146
2 3 0.638589 0.635401 0.665365
14 1 0.647391 0.632368 0.676271
6 3 0.645428 0.635166 0.688796
155 3 0.552393 0.507758 0.68568
186 1 0.543707 0.499443 0.690215
153 3 0.533532 0.49203 0.683593
188 1 0.543487 0.499312 0.705983
190 1 0.555226 0.500958 0.711502
216 2 0.534784 0.494928 0.711936
219 2 0.56385 0.5052 0.70569
220 2 0.558241 0.497429 0.721511
212 2 0.548431 0.613841 0.698676
185 1 0.576278 0.614133 0.698996
187 1 0.590908 0.610067 0.69752
215 2 0.592187 0.603331 0.689271
217 2 0.598483 0.622493 0.712091
154 3 0.573131 0.62294 0.708114
189 1 0.600933 0.614567 0.704901
218 2 0.611176 0.611374 0.703902
