ITEM: TIMESTEP
530000
ITEM: NUMBER OF ATOMS
220
ITEM: BOX BOUNDS ff ff ff
-5.0000000000000000e+01 5.0000000000000000e+01
-5.0000000000000000e+01 5.0000000000000000e+01
-5.0000000000000000e+01 5.0000000000000000e+01
ITEM: ATOMS id type xs ys zs
39 2 0.548593 0.576375 0.519851
38 2 0.564394 0.566658 0.520128
218 2 0.562602 0.598901 0.523153
189 1 0.569863 0.600231 0.530927
21 1 0.555842 0.570692 0.525692
217 2 0.578145 0.606634 0.528953
18 1 0.553493 0.568488 0.538877
214 2 0.552876 0.510525 0.614833
155 3 0.567532 0.522273 0.60148
186 1 0.561173 0.532509 0.606274
5 3 0.512472 0.546681 0.599876
25 2 0.517125 0.57978 0.599024
10 1 0.518078 0.581901 0.588659
24 2 0.508732 0.577905 0.584785
8 1 0.530934 0.575405 0.581713
11 1 0.52812 0.576545 0.56619
9 1 0.532276 0.560461 0.586307
26 2 0.527149 0.586579 0.562952
27 2 0.51852 0.571576 0.563438
22 2 0.540881 0.556151 0.581205
23 2 0.523852 0.5548 0.582704
1 3 0.533651 0.559308 0.601084
2 3 0.517539 0.596614 0.586961
6 3 0.503822 0.597894 0.607154
14 1 0.510593 0.603287 0.597651
13 1 0.522947 0.550972 0.605984
7 3 0.533456 0.582398 0.538638
3 3 0.539111 0.569507 0.558764
15 1 0.541095 0.574357 0.545251
70 2 0.531279 0.614867 0.576082
130 2 0.580636 0.544048 0.611573
30 2 0.53691 0.595836 0.601475
219 2 0.574043 0.541171 0.584019
12 1 0.543639 0.583793 0.585371
188 1 0.563039 0.546583 0.601246
190 1 0.569705 0.549404 0.589988
4 3 0.54247 0.588208 0.599249
33 2 0.559924 0.561911 0.543878
28 2 0.546133 0.591936 0.578213
215 2 0.55943 0.59008 0.54654
29 2 0.552568 0.577446 0.584777
220 2 0.570421 0.559519 0.586192
183 1 0.584244 0.594508 0.577124
207 2 0.576479 0.581717 0.591943
211 2 0.588238 0.605295 0.576452
212 2 0.593149 0.588503 0.577565
208 2 0.56693 0.595531 0.591118
181 1 0.577448 0.592542 0.590613
150 3 0.585016 0.597365 0.602847
152 3 0.57472 0.592135 0.565832
185 1 0.578651 0.598723 0.553655
187 1 0.568064 0.595847 0.5432
205 2 0.563262 0.579858 0.606369
216 2 0.559199 0.55428 0.607417
179 1 0.578842 0.593009 0.614712
177 1 0.567293 0.584244 0.61514
128 2 0.586055 0.566729 0.601033
100 1 0.591728 0.563222 0.609197
120 2 0.604121 0.581357 0.609995
154 3 0.58927 0.605842 0.551493
73 2 0.540678 0.612436 0.552914
55 1 0.541749 0.61654 0.573717
74 2 0.556784 0.615783 0.558619
58 1 0.546563 0.614563 0.561423
102 1 0.588148 0.551044 0.615751
61 2 0.562397 0.612405 0.606816
133 2 0.64749 0.559134 0.598957
80 3 0.668555 0.570005 0.605757
105 1 0.645644 0.564387 0.607966
138 2 0.688055 0.565082 0.607168
17 1 0.509215 0.618085 0.594537
32 2 0.515655 0.621798 0.587588
20 1 0.501165 0.626193 0.601234
36 2 0.501112 0.636931 0.600029
37 2 0.494377 0.623283 0.609175
40 3 0.545281 0.619745 0.597948
48 1 0.556479 0.621319 0.608289
62 2 0.562924 0.629348 0.60494
52 1 0.55148 0.619405 0.584985
44 3 0.5642 0.620335 0.582903
213 2 0.536862 0.516628 0.616419
34 2 0.518711 0.53705 0.636906
153 3 0.551188 0.531897 0.616598
184 1 0.546967 0.517937 0.620136
210 2 0.544962 0.50733 0.638096
151 3 0.540689 0.526942 0.643531
182 1 0.548702 0.517142 0.635381
209 2 0.559533 0.518241 0.637998
206 2 0.564428 0.536269 0.633264
123 2 0.606614 0.534294 0.654682
122 2 0.592387 0.536594 0.631284
148 2 0.637438 0.520727 0.631895
84 3 0.661834 0.528148 0.622177
131 2 0.619899 0.537819 0.67571
149 2 0.625143 0.53236 0.639276
119 1 0.63531 0.531001 0.635578
35 2 0.508564 0.534556 0.622046
19 1 0.516798 0.540291 0.626969
204 2 0.532898 0.544062 0.660846
16 1 0.525683 0.548319 0.620387
31 2 0.533981 0.552881 0.625809
72 2 0.529506 0.578644 0.622386
77 2 0.510442 0.569366 0.63635
60 1 0.512299 0.579957 0.635356
54 1 0.524277 0.600449 0.628123
78 2 0.505197 0.586688 0.639403
199 2 0.529185 0.60667 0.661818
57 1 0.522783 0.585038 0.62874
42 3 0.536239 0.60471 0.621916
46 3 0.515761 0.607377 0.634927
201 2 0.54004 0.615586 0.683441
171 1 0.539423 0.6037 0.664882
92 1 0.601569 0.571945 0.614793
180 1 0.547641 0.538437 0.647259
178 1 0.559905 0.542416 0.641285
173 1 0.545289 0.608396 0.677013
176 1 0.542421 0.547402 0.656782
196 2 0.543107 0.566211 0.666374
191 2 0.540439 0.590275 0.647837
94 1 0.594851 0.546304 0.627019
63 2 0.556951 0.605217 0.631065
163 1 0.544648 0.593277 0.657111
197 2 0.554666 0.572552 0.627672
203 2 0.59586 0.601488 0.625301
175 1 0.586378 0.596279 0.626199
169 1 0.562849 0.579419 0.627525
198 2 0.574995 0.55771 0.638873
157 1 0.557094 0.588024 0.660763
170 1 0.566077 0.55469 0.643858
159 1 0.563218 0.593098 0.67242
168 1 0.547524 0.559868 0.659264
161 1 0.57059 0.582639 0.639328
156 1 0.566479 0.577595 0.653339
158 1 0.577932 0.577071 0.663622
160 1 0.576039 0.586032 0.674817
162 1 0.559574 0.563613 0.652674
164 1 0.589258 0.568663 0.663987
167 1 0.582271 0.590625 0.638468
172 1 0.599348 0.570381 0.673937
192 2 0.589894 0.560112 0.6573
195 2 0.587739 0.592937 0.647038
88 1 0.605314 0.554278 0.632596
165 1 0.557977 0.60365 0.680936
166 1 0.58573 0.587871 0.685165
200 2 0.607249 0.562626 0.674252
174 1 0.597286 0.579891 0.684093
132 2 0.600577 0.604472 0.66469
193 2 0.562831 0.607077 0.689244
86 1 0.608017 0.567162 0.626667
104 1 0.606365 0.602514 0.655776
124 2 0.603647 0.58099 0.654441
95 1 0.612336 0.543177 0.656229
89 1 0.612504 0.552774 0.645365
50 1 0.538184 0.619651 0.624204
49 1 0.560588 0.615287 0.631831
125 2 0.625349 0.558168 0.610704
96 1 0.608311 0.589765 0.650562
103 1 0.619495 0.545545 0.668136
108 1 0.612604 0.61321 0.649286
109 1 0.656652 0.571587 0.612962
111 1 0.680463 0.565138 0.614168
97 1 0.633733 0.564052 0.614844
106 1 0.619259 0.612583 0.636873
139 2 0.682918 0.572637 0.622127
90 1 0.615952 0.588568 0.639095
98 1 0.621979 0.599562 0.632644
126 2 0.627759 0.599069 0.623365
115 1 0.658286 0.538938 0.628648
117 1 0.644515 0.540831 0.635344
87 1 0.620439 0.564628 0.646865
101 1 0.627906 0.556937 0.669027
129 2 0.634471 0.558291 0.677281
85 1 0.61906 0.573796 0.634431
93 1 0.627902 0.56669 0.658718
135 2 0.664453 0.583844 0.62922
107 1 0.65594 0.579037 0.62517
91 1 0.632283 0.572135 0.626214
99 1 0.643451 0.578894 0.631633
121 2 0.633303 0.575855 0.660995
127 2 0.641599 0.584724 0.640772
145 2 0.641827 0.550632 0.639292
82 3 0.665905 0.550942 0.629406
113 1 0.67802 0.551372 0.619811
143 2 0.675319 0.544138 0.612127
142 2 0.686712 0.548019 0.624752
147 2 0.536174 0.647209 0.614457
65 2 0.53193 0.623981 0.616337
66 2 0.533521 0.623241 0.633912
144 2 0.535009 0.640535 0.639277
146 2 0.548732 0.659321 0.61879
118 1 0.544239 0.649798 0.621297
45 3 0.585871 0.619858 0.647244
64 2 0.571191 0.615202 0.629019
69 2 0.579616 0.657682 0.632918
76 2 0.593152 0.625402 0.671798
67 2 0.589536 0.64089 0.651559
81 3 0.592829 0.649951 0.652079
116 1 0.543838 0.645624 0.635718
83 3 0.578753 0.634499 0.621473
68 2 0.54748 0.652847 0.643525
47 1 0.552417 0.623443 0.622454
41 3 0.561057 0.620323 0.646301
53 1 0.573929 0.621018 0.651923
114 1 0.569287 0.641586 0.626414
43 3 0.57064 0.654739 0.631762
112 1 0.605628 0.647639 0.658299
51 1 0.554061 0.638336 0.626398
56 1 0.572798 0.625109 0.666862
59 1 0.58292 0.62701 0.675008
71 2 0.563387 0.628367 0.670562
79 3 0.609448 0.625134 0.656911
75 2 0.581353 0.632854 0.684334
141 2 0.610036 0.65767 0.66003
110 1 0.615535 0.637522 0.651655
137 2 0.614978 0.638431 0.640424
140 2 0.604376 0.644256 0.6684
134 2 0.623267 0.621346 0.631831
136 2 0.625785 0.637933 0.654457
202 2 0.605116 0.580656 0.691667
194 2 0.583228 0.595615 0.692979
