ITEM: TIMESTEP
860000
ITEM: NUMBER OF ATOMS
220
ITEM: BOX BOUNDS ff ff ff
-5.0000000000000000e+01 5.0000000000000000e+01
-5.0000000000000000e+01 5.0000000000000000e+01
-5.0000000000000000e+01 5.0000000000000000e+01
ITEM: ATOMS id type xs ys zs
209 2 0.541968 0.510576 0.608402
214 2 0.537964 0.522046 0.586812
155 3 0.555897 0.526147 0.567012
4 3 0.592039 0.536264 0.569043
30 2 0.582612 0.535271 0.571871
213 2 0.549962 0.534442 0.592484
186 1 0.560534 0.516861 0.574706
184 1 0.546532 0.524128 0.593584
182 1 0.541959 0.521151 0.607871
190 1 0.575402 0.510088 0.555791
188 1 0.572295 0.509142 0.568881
153 3 0.556049 0.513933 0.587973
219 2 0.569549 0.516876 0.549438
220 2 0.582944 0.504426 0.550966
216 2 0.577532 0.500824 0.574462
32 2 0.571402 0.520908 0.611857
151 3 0.547275 0.525227 0.621777
119 1 0.676191 0.486506 0.616961
145 2 0.658795 0.494038 0.609467
117 1 0.669038 0.496427 0.612409
115 1 0.674538 0.511055 0.611167
82 3 0.663161 0.518772 0.607394
149 2 0.671803 0.476986 0.617449
148 2 0.687006 0.487522 0.620562
35 2 0.529348 0.578865 0.585979
19 1 0.535453 0.58692 0.58593
34 2 0.530411 0.596898 0.586636
179 1 0.518479 0.606611 0.618574
175 1 0.531488 0.603261 0.614099
152 3 0.501279 0.587585 0.60236
185 1 0.494891 0.581332 0.613336
206 2 0.536891 0.548017 0.60531
16 1 0.548742 0.585707 0.583777
178 1 0.541078 0.54919 0.615644
181 1 0.496525 0.611771 0.608301
150 3 0.510756 0.616356 0.611023
212 2 0.499519 0.604265 0.588631
211 2 0.484054 0.599115 0.594516
183 1 0.494562 0.600788 0.597866
210 2 0.531622 0.524676 0.608894
14 1 0.588656 0.535998 0.611581
29 2 0.592691 0.552898 0.561385
12 1 0.596324 0.550155 0.571298
2 3 0.583853 0.542698 0.600181
28 2 0.606801 0.551267 0.571119
23 2 0.571158 0.555672 0.569548
24 2 0.603412 0.552403 0.598811
22 2 0.569041 0.55015 0.585845
5 3 0.545965 0.561608 0.581453
3 3 0.60735 0.577532 0.582927
31 2 0.555227 0.594845 0.581746
8 1 0.589731 0.558596 0.582777
13 1 0.554027 0.571238 0.583547
26 2 0.588475 0.579049 0.588889
11 1 0.593452 0.574007 0.58178
9 1 0.5739 0.558024 0.580573
1 3 0.568233 0.571155 0.58459
10 1 0.59282 0.555041 0.597409
27 2 0.588896 0.576752 0.57247
128 2 0.569961 0.593874 0.597976
25 2 0.591846 0.562987 0.604571
203 2 0.537031 0.608161 0.606136
100 1 0.574949 0.588937 0.606103
120 2 0.593316 0.600485 0.603276
130 2 0.559122 0.574356 0.609964
92 1 0.588308 0.592765 0.608951
102 1 0.568539 0.577709 0.61252
125 2 0.609218 0.563119 0.620686
15 1 0.608522 0.591802 0.580705
7 3 0.599027 0.600342 0.578669
97 1 0.618483 0.56687 0.617711
46 3 0.560664 0.61519 0.606451
113 1 0.666871 0.533362 0.606066
139 2 0.644793 0.53743 0.600132
138 2 0.652671 0.53954 0.617007
18 1 0.622635 0.597017 0.58031
33 2 0.631257 0.590684 0.582334
39 2 0.616319 0.61613 0.575563
38 2 0.633672 0.614525 0.57717
21 1 0.624364 0.609695 0.57716
143 2 0.670295 0.532803 0.595573
111 1 0.653634 0.541032 0.605956
80 3 0.653721 0.55601 0.605365
133 2 0.626183 0.548009 0.609303
105 1 0.628497 0.55819 0.611809
109 1 0.641848 0.56229 0.609977
126 2 0.626818 0.603171 0.612099
98 1 0.621287 0.609308 0.618483
207 2 0.492184 0.609072 0.617977
208 2 0.491444 0.620615 0.603318
70 2 0.543957 0.647204 0.597624
73 2 0.549775 0.662615 0.580734
55 1 0.552849 0.65403 0.599472
58 1 0.555055 0.663202 0.590134
74 2 0.562689 0.671035 0.591064
78 2 0.573442 0.620992 0.588904
60 1 0.582427 0.623914 0.593531
77 2 0.590446 0.626607 0.587279
72 2 0.591433 0.627725 0.612059
52 1 0.561581 0.652484 0.61237
57 1 0.582739 0.625409 0.606428
134 2 0.630788 0.627633 0.613015
140 2 0.644391 0.660072 0.623418
136 2 0.625627 0.64794 0.611272
137 2 0.621011 0.661133 0.6192
106 1 0.623162 0.623335 0.618931
17 1 0.580728 0.523461 0.615632
37 2 0.595285 0.517548 0.629378
20 1 0.585696 0.51518 0.624311
36 2 0.579926 0.506206 0.626586
84 3 0.686803 0.513542 0.612758
215 2 0.509171 0.563577 0.616971
187 1 0.499733 0.567863 0.618864
154 3 0.48357 0.585018 0.618548
198 2 0.533073 0.569031 0.617314
218 2 0.492295 0.552451 0.631156
217 2 0.480109 0.565607 0.626541
189 1 0.490059 0.561918 0.626426
205 2 0.502898 0.605831 0.633664
177 1 0.5124 0.601533 0.630473
199 2 0.499522 0.565024 0.662946
171 1 0.509535 0.568543 0.663976
173 1 0.514108 0.573845 0.67665
163 1 0.51827 0.567741 0.652809
191 2 0.515269 0.563876 0.643502
197 2 0.51637 0.592326 0.648807
169 1 0.520475 0.593661 0.639105
165 1 0.52711 0.578904 0.677461
157 1 0.531429 0.573481 0.654298
161 1 0.532803 0.588942 0.634212
201 2 0.508995 0.572881 0.686502
193 2 0.530302 0.583232 0.687009
159 1 0.536294 0.578249 0.666148
68 2 0.527908 0.624565 0.662416
170 1 0.539357 0.56186 0.622098
6 3 0.60091 0.53594 0.616496
204 2 0.55858 0.535001 0.642184
195 2 0.547493 0.589889 0.618247
131 2 0.598685 0.557773 0.668821
156 1 0.540453 0.578404 0.642534
123 2 0.581441 0.562132 0.65312
103 1 0.600952 0.564958 0.661213
180 1 0.546509 0.539075 0.62448
94 1 0.573902 0.572245 0.624139
122 2 0.569337 0.563616 0.628936
167 1 0.537954 0.593071 0.621606
86 1 0.594516 0.585928 0.619615
88 1 0.586884 0.577255 0.628052
95 1 0.591302 0.566407 0.651586
89 1 0.594745 0.574519 0.640129
176 1 0.553599 0.5428 0.636664
200 2 0.582553 0.597153 0.651934
196 2 0.55601 0.557192 0.65268
168 1 0.552091 0.555433 0.64231
158 1 0.5524 0.584174 0.650306
160 1 0.549598 0.585501 0.664323
162 1 0.544348 0.564941 0.63535
164 1 0.564743 0.58846 0.644974
172 1 0.572891 0.593946 0.654729
192 2 0.567125 0.588925 0.634179
166 1 0.558297 0.591159 0.673454
174 1 0.570586 0.595435 0.668479
87 1 0.607287 0.581644 0.638803
96 1 0.6005 0.611426 0.632782
124 2 0.591329 0.607055 0.637046
85 1 0.609166 0.588287 0.625123
194 2 0.555977 0.589475 0.68433
202 2 0.577841 0.600268 0.674988
144 2 0.538492 0.613089 0.654022
90 1 0.610962 0.603871 0.626649
101 1 0.613082 0.572286 0.660315
66 2 0.555465 0.61015 0.640754
93 1 0.61591 0.581521 0.650079
142 2 0.674763 0.536602 0.612277
107 1 0.644208 0.57526 0.614169
135 2 0.65458 0.577938 0.612861
129 2 0.619633 0.57236 0.66853
121 2 0.624632 0.588405 0.650071
127 2 0.63841 0.593655 0.62226
99 1 0.63477 0.584144 0.619096
91 1 0.621313 0.580812 0.619384
116 1 0.534162 0.622802 0.653624
147 2 0.532168 0.625116 0.631511
69 2 0.523417 0.657715 0.659383
43 3 0.528331 0.649233 0.659294
114 1 0.542336 0.648374 0.657438
146 2 0.522971 0.637423 0.640699
118 1 0.531563 0.630646 0.640945
44 3 0.57279 0.658576 0.614139
83 3 0.551064 0.657823 0.657151
51 1 0.543637 0.634853 0.649877
104 1 0.603019 0.625066 0.632954
40 3 0.55523 0.644117 0.621626
62 2 0.563472 0.650748 0.639833
132 2 0.595807 0.63262 0.637872
65 2 0.549431 0.617878 0.626057
54 1 0.570342 0.619095 0.613655
64 2 0.573075 0.636259 0.656794
63 2 0.573761 0.619172 0.651414
49 1 0.566593 0.627646 0.653855
61 2 0.573155 0.639825 0.630383
42 3 0.57047 0.618868 0.627844
48 1 0.563146 0.641275 0.634858
41 3 0.560506 0.624099 0.667432
53 1 0.570339 0.622606 0.677631
50 1 0.556284 0.618321 0.634383
47 1 0.557085 0.630485 0.642765
45 3 0.581863 0.628635 0.677947
108 1 0.613881 0.630758 0.626516
79 3 0.613663 0.645033 0.628232
67 2 0.643345 0.633971 0.636004
81 3 0.64637 0.639761 0.628542
112 1 0.638848 0.652635 0.628838
141 2 0.637062 0.656067 0.638773
110 1 0.624586 0.651743 0.621314
71 2 0.556732 0.610085 0.689995
56 1 0.564587 0.616188 0.690054
75 2 0.566219 0.615722 0.711038
59 1 0.570829 0.618653 0.701721
76 2 0.580368 0.62269 0.702446
