ITEM: TIMESTEP
930000
ITEM: NUMBER OF ATOMS
220
ITEM: BOX BOUNDS ff ff ff
-5.0000000000000000e+01 5.0000000000000000e+01
-5.0000000000000000e+01 5.0000000000000000e+01
-5.0000000000000000e+01 5.0000000000000000e+01
ITEM: ATOMS id type xs ys zs
34 2 0.556309 0.585923 0.539547
31 2 0.577681 0.583915 0.548245
17 1 0.600838 0.512318 0.604611
20 1 0.61054 0.50531 0.61172
37 2 0.621266 0.506712 0.611355
14 1 0.606045 0.522322 0.593993
32 2 0.590402 0.509519 0.606273
29 2 0.609142 0.532747 0.560991
6 3 0.618873 0.521095 0.592062
82 3 0.681002 0.533674 0.610224
30 2 0.626295 0.52901 0.579115
139 2 0.653381 0.53993 0.615019
145 2 0.698979 0.514946 0.607918
115 1 0.690516 0.534816 0.599576
117 1 0.700441 0.523148 0.60116
149 2 0.718318 0.516865 0.592316
119 1 0.709807 0.523224 0.592636
148 2 0.709849 0.53107 0.585024
212 2 0.533124 0.604146 0.579201
207 2 0.535178 0.588766 0.597404
19 1 0.560118 0.576457 0.541527
16 1 0.571813 0.57554 0.547502
35 2 0.553851 0.567336 0.541344
208 2 0.541091 0.604729 0.601547
181 1 0.543599 0.595375 0.595413
5 3 0.569528 0.551666 0.552241
13 1 0.576593 0.562465 0.553451
123 2 0.559247 0.546268 0.600243
183 1 0.542841 0.598726 0.580258
211 2 0.541787 0.589457 0.573839
152 3 0.554234 0.606305 0.575258
154 3 0.543473 0.611214 0.553574
185 1 0.553884 0.611012 0.561303
150 3 0.555332 0.588675 0.601317
130 2 0.573027 0.583981 0.570463
100 1 0.591018 0.587951 0.581858
102 1 0.577986 0.581706 0.579338
92 1 0.597276 0.584844 0.594057
122 2 0.563755 0.566187 0.583377
94 1 0.573225 0.570511 0.586157
69 2 0.562974 0.614194 0.592645
128 2 0.5936 0.596333 0.57497
120 2 0.606675 0.589719 0.595918
43 3 0.563768 0.616027 0.602384
88 1 0.580108 0.56728 0.597827
86 1 0.592011 0.574155 0.60207
89 1 0.576935 0.556633 0.608165
95 1 0.566778 0.547059 0.607994
23 2 0.59345 0.544981 0.555623
2 3 0.597702 0.532305 0.589404
1 3 0.588619 0.563943 0.560269
22 2 0.586174 0.54469 0.571804
9 1 0.593878 0.550029 0.565661
25 2 0.600648 0.553225 0.592028
10 1 0.605525 0.545765 0.585991
26 2 0.60671 0.57202 0.574342
8 1 0.607205 0.550324 0.572056
27 2 0.615525 0.567076 0.560717
28 2 0.620026 0.544703 0.554704
11 1 0.613423 0.563092 0.570882
12 1 0.61682 0.540042 0.564207
4 3 0.628238 0.535224 0.571344
113 1 0.673232 0.546322 0.610327
24 2 0.61473 0.544159 0.590794
7 3 0.623002 0.588037 0.569288
143 2 0.669764 0.549609 0.600424
3 3 0.625435 0.567352 0.580671
15 1 0.62851 0.580855 0.578297
18 1 0.639914 0.586014 0.588131
21 1 0.643282 0.599078 0.589172
33 2 0.644602 0.578173 0.593482
135 2 0.633368 0.53652 0.622462
107 1 0.630193 0.546486 0.62093
111 1 0.661322 0.545762 0.620558
39 2 0.640488 0.606922 0.581807
38 2 0.650646 0.602401 0.595683
142 2 0.680788 0.554088 0.612335
109 1 0.639129 0.557623 0.621969
80 3 0.653736 0.557285 0.625563
133 2 0.643739 0.578437 0.619681
84 3 0.691186 0.543369 0.590016
46 3 0.538193 0.674718 0.609228
66 2 0.534838 0.644913 0.608886
61 2 0.52772 0.621158 0.617125
217 2 0.557442 0.622925 0.540322
189 1 0.566874 0.622864 0.545942
187 1 0.567157 0.616757 0.557915
114 1 0.554425 0.626057 0.604733
83 3 0.545543 0.630938 0.597197
215 2 0.576235 0.615889 0.564313
218 2 0.575623 0.627205 0.541783
60 1 0.565402 0.68895 0.61186
54 1 0.549458 0.670119 0.613906
57 1 0.562731 0.676969 0.615364
72 2 0.570431 0.672052 0.621248
42 3 0.550172 0.657254 0.619548
146 2 0.575741 0.628064 0.620091
50 1 0.537866 0.647397 0.618683
78 2 0.558816 0.695005 0.606112
77 2 0.575265 0.691978 0.613408
220 2 0.456853 0.515086 0.67086
190 1 0.467553 0.514652 0.672886
188 1 0.473997 0.522859 0.665546
216 2 0.468962 0.529838 0.659152
213 2 0.509854 0.525318 0.652715
219 2 0.471685 0.506853 0.678375
184 1 0.509072 0.535276 0.657826
186 1 0.489685 0.523426 0.664992
155 3 0.496921 0.513433 0.668365
210 2 0.510557 0.529514 0.678679
153 3 0.493716 0.53574 0.659283
214 2 0.512418 0.543213 0.65193
36 2 0.607948 0.498992 0.619512
131 2 0.560515 0.529601 0.615979
129 2 0.577418 0.528728 0.634665
103 1 0.567459 0.537426 0.618045
101 1 0.578385 0.536506 0.627255
209 2 0.526329 0.534289 0.669545
182 1 0.515465 0.535841 0.671649
206 2 0.536166 0.546424 0.655116
151 3 0.517068 0.549461 0.677422
74 2 0.504374 0.58691 0.631352
44 3 0.513265 0.606411 0.620098
205 2 0.534711 0.580908 0.617088
197 2 0.532642 0.588208 0.642617
70 2 0.51907 0.599634 0.653414
180 1 0.525567 0.558342 0.670311
176 1 0.523615 0.570889 0.676095
73 2 0.503858 0.580731 0.648083
55 1 0.515637 0.597845 0.64323
58 1 0.507072 0.587952 0.640935
52 1 0.518589 0.607489 0.632035
178 1 0.534764 0.556341 0.659639
191 2 0.537179 0.611701 0.654093
168 1 0.531722 0.581762 0.672613
196 2 0.530262 0.591538 0.676727
204 2 0.516162 0.572856 0.684051
127 2 0.609663 0.541789 0.617232
170 1 0.542848 0.567194 0.65639
126 2 0.596592 0.596187 0.612851
85 1 0.597776 0.567524 0.61484
177 1 0.542986 0.585374 0.622505
203 2 0.576993 0.589561 0.616945
200 2 0.586013 0.558852 0.672968
198 2 0.551796 0.566198 0.649316
179 1 0.554933 0.58714 0.615427
163 1 0.543093 0.613294 0.66247
68 2 0.562584 0.607148 0.624572
175 1 0.56739 0.587743 0.622118
169 1 0.542292 0.587529 0.636833
157 1 0.552676 0.603343 0.664829
167 1 0.566912 0.586507 0.636185
159 1 0.562371 0.605629 0.675154
161 1 0.554662 0.588259 0.643011
162 1 0.541819 0.579072 0.663222
156 1 0.553316 0.58894 0.658931
160 1 0.572077 0.594771 0.674304
195 2 0.575943 0.586069 0.642161
158 1 0.566633 0.585094 0.665192
164 1 0.572016 0.571948 0.662967
172 1 0.582094 0.568755 0.672421
192 2 0.5684 0.564372 0.656531
87 1 0.587107 0.556566 0.617502
90 1 0.597502 0.578769 0.625767
98 1 0.597175 0.59264 0.62313
93 1 0.588578 0.546142 0.627797
174 1 0.587292 0.577379 0.682489
166 1 0.582914 0.59068 0.683188
121 2 0.598121 0.545223 0.63338
96 1 0.597899 0.573954 0.638934
104 1 0.597508 0.583355 0.649524
124 2 0.598389 0.562876 0.640905
132 2 0.597872 0.580423 0.659901
165 1 0.564364 0.618527 0.681551
108 1 0.597498 0.596913 0.646676
106 1 0.598083 0.601742 0.633685
79 3 0.595519 0.607357 0.65663
202 2 0.594762 0.57359 0.69001
194 2 0.588348 0.596143 0.690696
91 1 0.612875 0.563163 0.615305
134 2 0.599272 0.612543 0.631477
99 1 0.616679 0.549631 0.617672
138 2 0.66533 0.539915 0.629083
125 2 0.621496 0.584163 0.614974
105 1 0.636052 0.57112 0.619446
97 1 0.622624 0.573258 0.615953
40 3 0.527767 0.617042 0.637441
48 1 0.529609 0.627018 0.626628
62 2 0.520664 0.632962 0.627639
71 2 0.515743 0.658371 0.666305
56 1 0.52685 0.660549 0.668115
65 2 0.528876 0.652941 0.62234
41 3 0.533577 0.649019 0.647423
59 1 0.528619 0.667607 0.679125
75 2 0.520348 0.670401 0.685141
53 1 0.538276 0.654709 0.659691
76 2 0.538224 0.669965 0.682284
116 1 0.560583 0.616265 0.630008
144 2 0.556586 0.614566 0.639528
47 1 0.542569 0.635743 0.626575
199 2 0.536458 0.633462 0.665462
49 1 0.544719 0.641546 0.640242
63 2 0.549615 0.634329 0.647202
171 1 0.54399 0.6259 0.667979
173 1 0.55449 0.627872 0.677984
51 1 0.554217 0.628697 0.620466
64 2 0.550621 0.65107 0.639654
118 1 0.568125 0.628154 0.626942
45 3 0.550374 0.65542 0.663688
201 2 0.555093 0.63661 0.683271
147 2 0.569389 0.63485 0.63575
136 2 0.58416 0.618485 0.6429
110 1 0.586125 0.61791 0.653365
137 2 0.57531 0.615418 0.657387
112 1 0.591733 0.631525 0.657892
140 2 0.592761 0.629684 0.668847
67 2 0.578785 0.645826 0.663136
81 3 0.58221 0.642283 0.655349
141 2 0.601464 0.634188 0.652993
193 2 0.572577 0.620407 0.68813
