ITEM: TIMESTEP
395000
ITEM: NUMBER OF ATOMS
220
ITEM: BOX BOUNDS ff ff ff
-5.0000000000000000e+01 5.0000000000000000e+01
-5.0000000000000000e+01 5.0000000000000000e+01
-5.0000000000000000e+01 5.0000000000000000e+01
ITEM: ATOMS id type xs ys zs
34 2 0.564342 0.514843 0.559416
39 2 0.529081 0.62173 0.525934
18 1 0.521369 0.616334 0.545107
7 3 0.537746 0.59901 0.536831
21 1 0.523087 0.62398 0.534532
38 2 0.518348 0.633725 0.53461
35 2 0.547735 0.513646 0.566457
5 3 0.530378 0.531545 0.566331
19 1 0.554985 0.519599 0.561739
16 1 0.553004 0.532916 0.559345
149 2 0.737638 0.536286 0.622708
15 1 0.52918 0.602992 0.545701
25 2 0.514654 0.574156 0.589026
10 1 0.516684 0.580281 0.580317
24 2 0.508222 0.579204 0.573937
6 3 0.501954 0.586633 0.60352
2 3 0.516895 0.594443 0.5859
14 1 0.509121 0.59555 0.597605
17 1 0.509302 0.610362 0.602413
3 3 0.526407 0.597297 0.558625
22 2 0.520054 0.559743 0.562877
23 2 0.524738 0.555458 0.578593
8 1 0.529712 0.575951 0.57306
11 1 0.532485 0.583707 0.55981
9 1 0.528285 0.560654 0.569429
26 2 0.526278 0.578754 0.552413
70 2 0.530684 0.613415 0.573785
1 3 0.539938 0.554167 0.563427
13 1 0.539524 0.539594 0.562061
219 2 0.528986 0.530853 0.595426
30 2 0.536861 0.58638 0.59908
4 3 0.540377 0.578465 0.595739
217 2 0.559256 0.608858 0.542254
27 2 0.542627 0.583592 0.556003
28 2 0.544894 0.591064 0.579481
12 1 0.542262 0.580571 0.581687
190 1 0.537606 0.536561 0.599596
220 2 0.542173 0.542914 0.591859
29 2 0.550253 0.574349 0.5778
183 1 0.576206 0.582547 0.582209
207 2 0.57573 0.567196 0.597841
211 2 0.586388 0.58079 0.579423
212 2 0.570948 0.575762 0.575308
208 2 0.564227 0.579518 0.600032
181 1 0.57459 0.57791 0.596902
150 3 0.582654 0.58547 0.606823
61 2 0.55704 0.597243 0.609845
152 3 0.572222 0.59663 0.578681
154 3 0.565488 0.589789 0.55615
185 1 0.568884 0.598665 0.564819
31 2 0.560797 0.539024 0.555273
48 1 0.554816 0.607784 0.607802
40 3 0.545802 0.607603 0.596078
187 1 0.568238 0.613505 0.56082
189 1 0.563863 0.616448 0.548489
188 1 0.540845 0.536404 0.612684
62 2 0.564521 0.611805 0.604568
205 2 0.560756 0.570832 0.615001
133 2 0.648719 0.546939 0.609415
80 3 0.669216 0.561877 0.606755
138 2 0.684395 0.571263 0.594959
111 1 0.679585 0.572295 0.605051
139 2 0.675051 0.582123 0.605703
145 2 0.715647 0.536814 0.611728
117 1 0.720223 0.545569 0.616035
82 3 0.700574 0.559741 0.60934
33 2 0.51466 0.619012 0.553083
32 2 0.514245 0.617901 0.597119
73 2 0.534722 0.631291 0.558011
147 2 0.530306 0.629723 0.602931
118 1 0.537073 0.636206 0.608694
55 1 0.539407 0.620029 0.575378
58 1 0.541321 0.629928 0.566501
146 2 0.539775 0.645483 0.603397
215 2 0.572139 0.621679 0.566972
218 2 0.563458 0.626479 0.544906
74 2 0.549509 0.636894 0.566912
52 1 0.548295 0.619207 0.587922
44 3 0.557046 0.628576 0.589021
155 3 0.523845 0.520091 0.618144
213 2 0.521106 0.520697 0.644592
210 2 0.534342 0.511023 0.665382
184 1 0.532079 0.518023 0.645345
151 3 0.534095 0.532323 0.666959
186 1 0.533312 0.527421 0.622686
214 2 0.53288 0.507667 0.64194
130 2 0.577944 0.542749 0.626105
182 1 0.537419 0.519716 0.659685
153 3 0.53886 0.527691 0.635946
209 2 0.548753 0.519502 0.658775
206 2 0.557824 0.534987 0.65152
72 2 0.53823 0.566657 0.618256
20 1 0.502234 0.612212 0.613406
65 2 0.527959 0.609288 0.615195
37 2 0.496303 0.604643 0.617907
57 1 0.529321 0.569498 0.624269
60 1 0.519703 0.560216 0.626651
54 1 0.527342 0.584366 0.627393
78 2 0.510334 0.562149 0.631442
46 3 0.516104 0.588281 0.632491
77 2 0.521215 0.550154 0.623777
199 2 0.528129 0.610222 0.664613
66 2 0.53021 0.609669 0.632124
204 2 0.531286 0.553309 0.679211
50 1 0.535411 0.606977 0.622643
42 3 0.538351 0.592172 0.623036
128 2 0.588105 0.556329 0.609274
122 2 0.588795 0.540375 0.648857
120 2 0.607227 0.571623 0.614985
216 2 0.549032 0.542353 0.615849
171 1 0.537821 0.607672 0.667794
179 1 0.577599 0.583515 0.620085
123 2 0.604158 0.541491 0.670216
100 1 0.592801 0.556385 0.618907
92 1 0.604186 0.564348 0.621898
102 1 0.586851 0.548151 0.628974
180 1 0.543156 0.542877 0.664916
191 2 0.538549 0.59169 0.653138
176 1 0.539969 0.554216 0.672895
196 2 0.542811 0.5745 0.677438
178 1 0.554388 0.544036 0.656302
63 2 0.5545 0.600144 0.63613
163 1 0.543979 0.596864 0.660932
197 2 0.551268 0.570626 0.638973
203 2 0.593313 0.596431 0.627503
175 1 0.585234 0.589944 0.630021
177 1 0.56552 0.576204 0.622906
169 1 0.560494 0.576022 0.636126
198 2 0.570642 0.557189 0.649421
157 1 0.556245 0.592439 0.665794
170 1 0.561566 0.555794 0.655753
159 1 0.563517 0.599282 0.676159
168 1 0.547066 0.56611 0.672616
161 1 0.568819 0.581804 0.646093
156 1 0.564756 0.580408 0.66112
158 1 0.577369 0.581537 0.67006
160 1 0.57661 0.592886 0.67895
162 1 0.55733 0.567159 0.662673
164 1 0.588131 0.572744 0.669366
167 1 0.580814 0.588742 0.643254
172 1 0.598984 0.576308 0.678076
192 2 0.589069 0.564228 0.662404
195 2 0.586532 0.592834 0.651442
94 1 0.592814 0.54713 0.641585
88 1 0.604412 0.55495 0.644176
86 1 0.610335 0.563634 0.634688
165 1 0.557432 0.610351 0.682501
166 1 0.588017 0.597748 0.68582
174 1 0.598461 0.588263 0.685752
132 2 0.60999 0.611507 0.661445
49 1 0.557126 0.610111 0.632735
104 1 0.612486 0.607044 0.652199
200 2 0.607278 0.569664 0.678315
64 2 0.568249 0.609419 0.630368
106 1 0.615291 0.607844 0.627837
173 1 0.544188 0.613939 0.679073
124 2 0.615108 0.587782 0.660774
96 1 0.615592 0.593296 0.652194
47 1 0.548638 0.613792 0.620458
134 2 0.614673 0.612984 0.618148
45 3 0.578452 0.618306 0.65077
105 1 0.648418 0.55575 0.615797
109 1 0.65865 0.5652 0.616221
89 1 0.613404 0.555831 0.656251
126 2 0.621483 0.588785 0.619141
95 1 0.61314 0.548112 0.668214
103 1 0.623259 0.550996 0.677694
90 1 0.619887 0.586859 0.640173
87 1 0.624007 0.565224 0.654078
101 1 0.633852 0.560533 0.675308
125 2 0.629632 0.549998 0.624537
135 2 0.667275 0.582481 0.626149
98 1 0.619033 0.594377 0.628038
85 1 0.622409 0.571641 0.639977
91 1 0.635609 0.569246 0.631604
97 1 0.637261 0.557501 0.624263
99 1 0.646644 0.578387 0.632778
107 1 0.658375 0.576051 0.625385
121 2 0.642473 0.574201 0.66014
127 2 0.647425 0.585871 0.640308
93 1 0.634642 0.567175 0.66282
129 2 0.641279 0.562634 0.682631
142 2 0.68856 0.567709 0.62504
113 1 0.691387 0.570533 0.614759
119 1 0.73247 0.544814 0.621651
148 2 0.737184 0.553317 0.626854
143 2 0.696661 0.579897 0.615798
84 3 0.717136 0.567472 0.625391
115 1 0.712532 0.558648 0.617033
36 2 0.50116 0.622121 0.616842
144 2 0.527632 0.631391 0.628541
116 1 0.535684 0.636813 0.623131
68 2 0.538014 0.646083 0.627917
69 2 0.568152 0.654772 0.616746
43 3 0.559557 0.649351 0.615407
108 1 0.612556 0.614407 0.640269
201 2 0.538884 0.622111 0.683874
83 3 0.573522 0.629249 0.616839
193 2 0.563056 0.615286 0.690586
141 2 0.594416 0.649656 0.619937
136 2 0.612901 0.637155 0.623745
41 3 0.554739 0.62032 0.643003
114 1 0.562336 0.635337 0.61648
51 1 0.548148 0.628664 0.618555
137 2 0.59873 0.626954 0.624425
53 1 0.566461 0.62257 0.651143
76 2 0.581355 0.631944 0.672371
56 1 0.562729 0.632758 0.662221
59 1 0.571738 0.636783 0.671178
71 2 0.552819 0.637409 0.662003
75 2 0.570399 0.645699 0.677888
67 2 0.577322 0.641053 0.63579
110 1 0.604604 0.634775 0.630036
81 3 0.584276 0.64671 0.639191
112 1 0.596053 0.647777 0.63082
140 2 0.601099 0.656107 0.635171
79 3 0.608862 0.628215 0.642454
194 2 0.588086 0.606965 0.69127
202 2 0.607205 0.590956 0.691058
131 2 0.622326 0.54598 0.687292
