#Model for Polymer

39 atoms
38 bonds
0 dihedrals
0 impropers
 
3 atom types
2 bond types
0 dihedral types
0 improper types


-20.0 20.0 xlo xhi
-20.0 20.0 ylo yhi
-20.0 20.0 zlo zhi

Masses

1 12.0110 #Kohlenstoff
2 1.0080  #Wasserstoff
3 15.9990 #Sauerstoff

Atoms #number, sort,position, q, molecule ID

1	1	0	0	0	0	1
2	1	2	0	0	0	1
3	2	2	-2	0	0	1
4	2	2	2	0	0	1
5	3	2.9999	0	-1.732	0	1
6	1	4.9999	0	-1.732	0	1
7	3	4.9999	0	-2.732	0	1
8	1	6.8888	0	0	0	1
9	2	6.8888	0	2	0	1
10	1	8.8888	0	0	0	1
11	2	9.7777	0	-1.732	0	1
12	2	9.7777	0	1.732	0	1
13	1	-2	0	0	0	1	#Beginn der zweiten (-x) Kette 
14	2	-2	-2	0	0	1
15	2	-2	0	2	0	1
16	3	-2.9999	1.732	0	0	1
17	1	-4.9999	1.732	0	0	1
18	3	-4.9999	2.732	0	0	1
19	1	-6.8888	0	0	0	1
20	2	-6.8888	-2	0	0	1
21	1	-8.8888	0	0	0	1
22	2	-9.7777	1.732	0	0	1
23	2	-9.7777	-1.732	0	0	1
24	1	0	0	2	0	1	#Beginn der dritten (z) Kette
25	2	0	2	2	0	1
26	2	2	0	2	0	1
27	3	0	-1.732	2.9999	0	1
28	1	0	-1.732	4.9999	0	1
29	3	0	-2.732	4.9999	0	1
30	1	0	0	6.8888	0	1
31	2	0	2	6.8888	0	1
32	1	0	0	8.8888	0	1
33	2	0	-1.732	9.7777	0	1
34	2	0	1.732	9.7777	0	1
35	1	0	2	0	0	1	#Beginn des aktiven Endes (y)
36	2	-2	2	0	0	1
37	2	0	2	-2	0	1
38	3	0	4.9999	1.732	0	1
39	2	0	6.9999	1.732	0	1

Bonds #number, bond-type, atom1, atom2

1	1	1	2
2	1	2	3
3	1	2	4
4	1	2	5
5	1	5	6
6	2	6	7
7	1	6	8
8	1	8	9
9	2	8	10
10	1	10	11
11	1	10	12
12	1	1	13 #Beginn der zweiten (y) Kette
13	1	13	14
14	1	13	15
15	1	13	16
16	1	16	17
17	2	17	18
18	1	17	19
19	1	19	20
20	2	19	21
21	1	21	22
22	1	21	23
23	1	1	24 #Beginn der dritten (z) Kette
24	1	24	25
25	1	24	26
26	1	24	27
27	1	27	28
28	2	28	29
29	1	28	30
30	1	30	31
31	2	30	32
32	1	32	33
33	1	32	34
34	1	1	35 #Beginn des aktiven Endes
35	1	35	36
36	1	35	37
37	1	35	38
38	1	38	39

Bond Coeffs

1	 305	1.5 #Federkonstante K [Energie/Dehnung], Gleichgewichtslänge
2	 500	1.2
